 Entering Gaussian System, Link 0=g09
 Initial command:
 /mnt/data/applications/G09/g09/l1.exe "/scratch/Gau-9705.inp" -scrdir="/scratch/"
 Entering Link 1 = /mnt/data/applications/G09/g09/l1.exe PID=      9706.
  
 Copyright (c) 1988,1990,1992,1993,1995,1998,2003,2009,2013,
            Gaussian, Inc.  All Rights Reserved.
  
 This is part of the Gaussian(R) 09 program.  It is based on
 the Gaussian(R) 03 system (copyright 2003, Gaussian, Inc.),
 the Gaussian(R) 98 system (copyright 1998, Gaussian, Inc.),
 the Gaussian(R) 94 system (copyright 1995, Gaussian, Inc.),
 the Gaussian 92(TM) system (copyright 1992, Gaussian, Inc.),
 the Gaussian 90(TM) system (copyright 1990, Gaussian, Inc.),
 the Gaussian 88(TM) system (copyright 1988, Gaussian, Inc.),
 the Gaussian 86(TM) system (copyright 1986, Carnegie Mellon
 University), and the Gaussian 82(TM) system (copyright 1983,
 Carnegie Mellon University). Gaussian is a federally registered
 trademark of Gaussian, Inc.
  
 This software contains proprietary and confidential information,
 including trade secrets, belonging to Gaussian, Inc.
  
 This software is provided under written license and may be
 used, copied, transmitted, or stored only in accord with that
 written license.
  
 The following legend is applicable only to US Government
 contracts under FAR:
  
                    RESTRICTED RIGHTS LEGEND
  
 Use, reproduction and disclosure by the US Government is
 subject to restrictions as set forth in subparagraphs (a)
 and (c) of the Commercial Computer Software - Restricted
 Rights clause in FAR 52.227-19.
  
 Gaussian, Inc.
 340 Quinnipiac St., Bldg. 40, Wallingford CT 06492
  
  
 ---------------------------------------------------------------
 Warning -- This program may not be used in any manner that
 competes with the business of Gaussian, Inc. or will provide
 assistance to any competitor of Gaussian, Inc.  The licensee
 of this program is prohibited from giving any competitor of
 Gaussian, Inc. access to this program.  By using this program,
 the user acknowledges that Gaussian, Inc. is engaged in the
 business of creating and licensing software in the field of
 computational chemistry and represents and warrants to the
 licensee that it is not a competitor of Gaussian, Inc. and that
 it will not use this program in any manner prohibited above.
 ---------------------------------------------------------------
  

 Cite this work as:
 Gaussian 09, Revision D.01,
 M. J. Frisch, G. W. Trucks, H. B. Schlegel, G. E. Scuseria, 
 M. A. Robb, J. R. Cheeseman, G. Scalmani, V. Barone, B. Mennucci, 
 G. A. Petersson, H. Nakatsuji, M. Caricato, X. Li, H. P. Hratchian, 
 A. F. Izmaylov, J. Bloino, G. Zheng, J. L. Sonnenberg, M. Hada, 
 M. Ehara, K. Toyota, R. Fukuda, J. Hasegawa, M. Ishida, T. Nakajima, 
 Y. Honda, O. Kitao, H. Nakai, T. Vreven, J. A. Montgomery, Jr., 
 J. E. Peralta, F. Ogliaro, M. Bearpark, J. J. Heyd, E. Brothers, 
 K. N. Kudin, V. N. Staroverov, T. Keith, R. Kobayashi, J. Normand, 
 K. Raghavachari, A. Rendell, J. C. Burant, S. S. Iyengar, J. Tomasi, 
 M. Cossi, N. Rega, J. M. Millam, M. Klene, J. E. Knox, J. B. Cross, 
 V. Bakken, C. Adamo, J. Jaramillo, R. Gomperts, R. E. Stratmann, 
 O. Yazyev, A. J. Austin, R. Cammi, C. Pomelli, J. W. Ochterski, 
 R. L. Martin, K. Morokuma, V. G. Zakrzewski, G. A. Voth, 
 P. Salvador, J. J. Dannenberg, S. Dapprich, A. D. Daniels, 
 O. Farkas, J. B. Foresman, J. V. Ortiz, J. Cioslowski, 
 and D. J. Fox, Gaussian, Inc., Wallingford CT, 2013.
 
 ******************************************
 Gaussian 09:  EM64L-G09RevD.01 24-Apr-2013
                 7-Feb-2017 
 ******************************************
 %nprocshared=8
 Will use up to    8 processors via shared memory.
 %mem=8000MB
 %chk=F_1
 ----------------------------------------------------------------------
 #p opt=nomicro oniom(B3LYP/6-31G*:external="./sictwo_files/sictwo_g09d
 01") geom=connectivity nosymm scf(maxcyc=100)
 ----------------------------------------------------------------------
 1/14=-1,18=20,19=15,26=1,38=1,52=2,57=2/1,3;
 2/9=110,12=2,15=1,17=6,18=5,40=1/2;
 1/14=-1,18=20,19=15,26=1,38=1,52=2,53=3172/20;
 3/11=9,16=1,25=1,30=1,41=9900000,43=2,71=1/1;
 4/20=17,22=1,23=100,24=3,113=1,114=1/2;
 6/7=2,8=2,9=2,10=2/1;
 7/7=1,30=1,33=-1,44=-1/16;
 1/14=-1,18=20,19=15,26=1,52=2,53=2032/20;
 3/5=1,6=6,7=1,11=2,16=1,25=1,30=1,71=1,74=-5/1,2,3;
 4//1;
 5/5=2,7=100,38=5/2;
 6/7=2,8=2,9=2,10=2,28=1/1;
 7/7=1,30=1,33=-1/1,2,3,16;
 1/14=-1,18=20,19=15,26=1,52=2,53=1022/20;
 3/11=9,16=1,25=1,30=1,41=9900000,43=2,71=1/1;
 4/20=17,22=1,23=100,24=3,113=1,114=2/2;
 6/7=2,8=2,9=2,10=2/1;
 7/7=1,30=1,33=-1,44=-1/16;
 1/14=-1,18=20,19=15,26=1,52=2,53=3015/20;
 7/9=1,44=-1/16;
 1/14=-1,18=20,19=15,26=1,52=2/3(2);
 2/9=110,15=1/2;
 99//99;
 2/9=110,15=1/2;
 1/14=-1,18=20,19=15,26=1,52=2,53=3173/20;
 3/11=9,16=1,25=1,30=1,41=9900000,43=2,71=1/1;
 4/16=2,20=17,22=1,23=100,24=3,113=1,114=1/2;
 7/7=1,30=1,33=-1,44=-1/16;
 1/14=-1,18=20,19=15,26=1,52=2,53=2033/20;
 3/5=1,6=6,7=1,11=2,16=1,25=1,30=1,71=1,74=-5/1,2,3;
 4/5=5,16=3,69=1/1;
 5/5=2,7=100,38=5/2;
 7/7=1,30=1,33=-1/1,2,3,16;
 1/14=-1,18=20,19=15,26=1,52=2,53=1023/20;
 3/11=9,16=1,25=1,30=1,41=9900000,43=2,71=1/1;
 4/16=2,20=17,22=1,23=100,24=3,113=1,114=2/2;
 7/7=1,30=1,33=-1,44=-1/16;
 1/14=-1,18=20,19=15,26=1,52=2,53=3015/20;
 7/9=1,44=-1/16;
 1/14=-1,18=20,19=15,26=1,52=2/3(-16);
 2/9=110,15=1/2;
 99//99;
 Leave Link    1 at Tue Feb  7 16:41:47 2017, MaxMem=  1048576000 cpu:         0.8
 (Enter /mnt/data/applications/G09/g09/l101.exe)
 --------------------------------------
 ONIOM(QM:MM) OPT FREQ with SICTWO V1.0
 --------------------------------------
 Symbolic Z-matrix:
 Charge =  0 Multiplicity = 1 for low   level calculation on real  system.
 Charge =  0 Multiplicity = 1 for high  level calculation on model system.
 Charge =  0 Multiplicity = 1 for low   level calculation on model system.
 C-C_R                0    -1.9357    0.18087   0.48372  H 
 C-C_R                0    -0.53395   0.18087   0.48372  H 
 C-C_R                0    -0.10996   1.55166   0.48372  H 
 C-C_R                0    -1.26701   2.34312   0.48362  H 
 H-H_                 0    -2.63729  -0.65237   0.48382  H 
 H-H_                 0     0.11042  -0.69184   0.48375  H 
 H-H_                 0     0.91461   1.90815   0.4837   H 
 H-H_                 0    -1.37594   3.42689   0.48347  L    H-H_     4     0.        0. 
 O-O_R                0    -2.37543   1.50137   0.48372  H 
 
 Warning:  atom H8 in layer R is uses the same element as its link atom.
 NAtoms=      9 NQM=        9 NQMF=       0 NMMI=      0 NMMIF=      0
                NMic=       0 NMicF=      0.
                    Isotopes and Nuclear Properties:
 (Nuclear quadrupole moments (NQMom) in fm**2, nuclear magnetic moments (NMagM)
  in nuclear magnetons)

  Atom         1           2           3           4           5           6           7           8           9
 IAtWgt=          12          12          12          12           1           1           1           1          16
 AtmWgt=  12.0000000  12.0000000  12.0000000  12.0000000   1.0078250   1.0078250   1.0078250   1.0078250  15.9949146
 NucSpn=           0           0           0           0           1           1           1           1           0
 AtZEff=   0.0000000   0.0000000   0.0000000   0.0000000   0.0000000   0.0000000   0.0000000   0.0000000   0.0000000
 NQMom=    0.0000000   0.0000000   0.0000000   0.0000000   0.0000000   0.0000000   0.0000000   0.0000000   0.0000000
 NMagM=    0.0000000   0.0000000   0.0000000   0.0000000   2.7928460   2.7928460   2.7928460   2.7928460   0.0000000
 AtZNuc=   6.0000000   6.0000000   6.0000000   6.0000000   1.0000000   1.0000000   1.0000000   1.0000000   8.0000000
 Leave Link  101 at Tue Feb  7 16:41:47 2017, MaxMem=  1048576000 cpu:         3.1
 (Enter /mnt/data/applications/G09/g09/l103.exe)

 GradGradGradGradGradGradGradGradGradGradGradGradGradGradGradGradGradGrad
 Berny optimization.
 Initialization pass.
                           ----------------------------
                           !    Initial Parameters    !
                           ! (Angstroms and Degrees)  !
 --------------------------                            --------------------------
 ! Name  Definition              Value          Derivative Info.                !
 --------------------------------------------------------------------------------
 ! R1    R(1,2)                  1.4018         estimate D2E/DX2                !
 ! R2    R(1,5)                  1.0893         estimate D2E/DX2                !
 ! R3    R(1,9)                  1.3918         estimate D2E/DX2                !
 ! R4    R(2,3)                  1.4349         estimate D2E/DX2                !
 ! R5    R(2,6)                  1.0848         estimate D2E/DX2                !
 ! R6    R(3,4)                  1.4018         estimate D2E/DX2                !
 ! R7    R(3,7)                  1.0848         estimate D2E/DX2                !
 ! R8    R(4,8)                  1.0892         estimate D2E/DX2                !
 ! R9    R(4,9)                  1.3918         estimate D2E/DX2                !
 ! A1    A(2,1,5)              130.0976         estimate D2E/DX2                !
 ! A2    A(2,1,9)              108.4177         estimate D2E/DX2                !
 ! A3    A(5,1,9)              121.4847         estimate D2E/DX2                !
 ! A4    A(1,2,3)              107.1873         estimate D2E/DX2                !
 ! A5    A(1,2,6)              126.4408         estimate D2E/DX2                !
 ! A6    A(3,2,6)              126.372          estimate D2E/DX2                !
 ! A7    A(2,3,4)              107.1858         estimate D2E/DX2                !
 ! A8    A(2,3,7)              126.3724         estimate D2E/DX2                !
 ! A9    A(4,3,7)              126.4419         estimate D2E/DX2                !
 ! A10   A(3,4,8)              130.1121         estimate D2E/DX2                !
 ! A11   A(3,4,9)              108.4137         estimate D2E/DX2                !
 ! A12   A(8,4,9)              121.4742         estimate D2E/DX2                !
 ! A13   A(1,9,4)              108.7956         estimate D2E/DX2                !
 ! D1    D(5,1,2,3)           -179.9933         estimate D2E/DX2                !
 ! D2    D(5,1,2,6)              0.0051         estimate D2E/DX2                !
 ! D3    D(9,1,2,3)              0.0004         estimate D2E/DX2                !
 ! D4    D(9,1,2,6)            179.9987         estimate D2E/DX2                !
 ! D5    D(2,1,9,4)              0.0039         estimate D2E/DX2                !
 ! D6    D(5,1,9,4)            179.9982         estimate D2E/DX2                !
 ! D7    D(1,2,3,4)             -0.0044         estimate D2E/DX2                !
 ! D8    D(1,2,3,7)           -179.9984         estimate D2E/DX2                !
 ! D9    D(6,2,3,4)            179.9972         estimate D2E/DX2                !
 ! D10   D(6,2,3,7)              0.0033         estimate D2E/DX2                !
 ! D11   D(2,3,4,8)           -179.9922         estimate D2E/DX2                !
 ! D12   D(2,3,4,9)              0.0069         estimate D2E/DX2                !
 ! D13   D(7,3,4,8)              0.0017         estimate D2E/DX2                !
 ! D14   D(7,3,4,9)           -179.9992         estimate D2E/DX2                !
 ! D15   D(3,4,9,1)             -0.0067         estimate D2E/DX2                !
 ! D16   D(8,4,9,1)            179.9924         estimate D2E/DX2                !
 --------------------------------------------------------------------------------
 Trust Radius=3.00D-01 FncErr=1.00D-07 GrdErr=1.00D-07
 Number of steps in this run=     48 maximum allowed number of steps=    100.
 GradGradGradGradGradGradGradGradGradGradGradGradGradGradGradGradGradGrad

 Leave Link  103 at Tue Feb  7 16:41:48 2017, MaxMem=  1048576000 cpu:         0.1
 (Enter /mnt/data/applications/G09/g09/l202.exe)
                          Input orientation:                          
 ---------------------------------------------------------------------
 Center     Atomic      Atomic             Coordinates (Angstroms)
 Number     Number       Type             X           Y           Z
 ---------------------------------------------------------------------
      1          6    10061000       -1.935705    0.180867    0.483724
      2          6    10061000       -0.533955    0.180867    0.483724
      3          6    10061000       -0.109957    1.551663    0.483724
      4          6    10061000       -1.267014    2.343116    0.483620
      5          1    10011000       -2.637293   -0.652366    0.483822
      6          1    10011000        0.110418   -0.691839    0.483749
      7          1    10011000        0.914606    1.908155    0.483699
      8          1    10011000       -1.375936    3.426888    0.483473
      9          8    10081000       -2.375432    1.501375    0.483715
 ---------------------------------------------------------------------
                    Distance matrix (angstroms):
                    1          2          3          4          5
     1  C    0.000000
     2  C    1.401750   0.000000
     3  C    2.283076   1.434871   0.000000
     4  C    2.263287   2.283133   1.401848   0.000000
     5  H    1.089267   2.262368   3.353382   3.294021   0.000000
     6  H    2.224463   1.084819   2.254300   3.332907   2.747995
     7  H    3.332836   2.254297   1.084811   2.224558   4.378613
     8  H    3.293933   3.353444   2.262559   1.089232   4.269817
     9  O    1.391798   2.266005   2.266033   1.391804   2.169602
                    6          7          8          9
     6  H    0.000000
     7  H    2.721523   0.000000
     8  H    4.378717   2.748296   0.000000
     9  O    3.315062   3.315090   2.169468   0.000000
 Symmetry turned off by external request.
 Stoichiometry    C4H4O
 Framework group  C1[X(C4H4O)]
 Deg. of freedom    21
 Full point group                 C1      NOp   1
 Rotational constants (GHZ):      9.0234562      9.0017049      4.5062837
 Leave Link  202 at Tue Feb  7 16:41:48 2017, MaxMem=  1048576000 cpu:         0.0
 (Enter /mnt/data/applications/G09/g09/l120.exe)
 ONIOM: Cut between H /H     8 and C     4 factor= 1.000000 1.000000
 ONIOM: saving gridpoint 17
 ONIOM: generating point  3 -- low level on real system.
 Leave Link  120 at Tue Feb  7 16:41:48 2017, MaxMem=  1048576000 cpu:         0.0
 (Enter /mnt/data/applications/G09/g09/l301.exe)
 Standard basis: STO-3G (5D, 7F)
 Ernie: Thresh=  0.10000D-02 Tol=  0.10000D-05 Strict=F.
    29 basis functions,    87 primitive gaussians,    29 cartesian basis functions
    18 alpha electrons       18 beta electrons
       nuclear repulsion energy       157.7709819227 Hartrees.
 IExCor=    0 DFT=F Ex=HF Corr=None ExCW=0 ScaHFX=  1.000000
 ScaDFX=  1.000000  1.000000  1.000000  1.000000 ScalE2=  1.000000  1.000000
 IRadAn=      0 IRanWt=     -1 IRanGd=            0 ICorTp=0 IEmpDi=  4
 NAtoms=    9 NActive=    9 NUniq=    9 SFac= 1.00D+00 NAtFMM=   60 NAOKFM=F Big=F
 Integral buffers will be    131072 words long.
 Raffenetti 1 integral format.
 Two-electron integral symmetry is turned off.
 Leave Link  301 at Tue Feb  7 16:41:48 2017, MaxMem=  1048576000 cpu:         0.5
 (Enter /mnt/data/applications/G09/g09/l402.exe)
 External calculation of energy and first derivatives.
 Running external command "./sictwo_files/sictwo_g09d01 R"
         input file       "/scratch/Gau-9706.EIn"
         output file      "/scratch/Gau-9706.EOu"
         message file     "/scratch/Gau-9706.EMs"
         fchk file        "/scratch/Gau-9706.EFC"
         mat. el file     "/scratch/Gau-9706.EUF"

---------------------------- SICTWO Version 1.0 STARTED -----------------------------

MM calculations started
MM calculations finished ....
Information recovery

---------------------------- SICTWO Version 1.0 FINISHED -----------------------------

 Recovered energy= 0.147828803164E-01 dipole=      0.737681893125     -0.228189598940      0.000000000000
 Energy=    1.478288032E-02 NIter=   0.
 Dipole moment=       0.737682      -0.228190       0.000000
 Leave Link  402 at Tue Feb  7 16:41:51 2017, MaxMem=  1048576000 cpu:        20.4
 (Enter /mnt/data/applications/G09/g09/l601.exe)
 Leave Link  601 at Tue Feb  7 16:41:51 2017, MaxMem=  1048576000 cpu:         0.2
 (Enter /mnt/data/applications/G09/g09/l716.exe)
 Dipole        = 7.37681893D-01-2.28189599D-01 0.00000000D+00
 Cartesian Forces:  Max     0.032509774 RMS     0.012935485
 Leave Link  716 at Tue Feb  7 16:41:51 2017, MaxMem=  1048576000 cpu:         0.2
 (Enter /mnt/data/applications/G09/g09/l120.exe)
 SvSCFP did not find density file   528.
 ONIOM: saving gridpoint  3
 ONIOM: restoring gridpoint 17
 ONIOM: generating point  2 -- high level on model system.
 Leave Link  120 at Tue Feb  7 16:41:51 2017, MaxMem=  1048576000 cpu:         0.0
 (Enter /mnt/data/applications/G09/g09/l301.exe)
 Standard basis: 6-31G(d) (6D, 7F)
 Ernie: Thresh=  0.10000D-02 Tol=  0.10000D-05 Strict=F.
    83 basis functions,   156 primitive gaussians,    83 cartesian basis functions
    18 alpha electrons       18 beta electrons
       nuclear repulsion energy       157.7709819227 Hartrees.
 IExCor=  402 DFT=T Ex+Corr=B3LYP ExCW=0 ScaHFX=  0.200000
 ScaDFX=  0.800000  0.720000  1.000000  0.810000 ScalE2=  1.000000  1.000000
 IRadAn=      0 IRanWt=     -1 IRanGd=            0 ICorTp=0 IEmpDi=  4
 NAtoms=    9 NActive=    9 NUniq=    9 SFac= 1.00D+00 NAtFMM=   60 NAOKFM=F Big=F
 Integral buffers will be    131072 words long.
 Raffenetti 2 integral format.
 Two-electron integral symmetry is turned off.
 Leave Link  301 at Tue Feb  7 16:41:51 2017, MaxMem=  1048576000 cpu:         0.5
 (Enter /mnt/data/applications/G09/g09/l302.exe)
 NPDir=0 NMtPBC=     1 NCelOv=     1 NCel=       1 NClECP=     1 NCelD=      1
         NCelK=      1 NCelE2=     1 NClLst=     1 CellRange=     0.0.
 One-electron integrals computed using PRISM.
 NBasis=    83 RedAO= T EigKep=  1.42D-03  NBF=    83
 NBsUse=    83 1.00D-06 EigRej= -1.00D+00 NBFU=    83
 Precomputing XC quadrature grid using
 IXCGrd= 4 IRadAn=           0 IRanWt=          -1 IRanGd=           0 AccXCQ= 0.00D+00.
 Generated NRdTot=       0 NPtTot=           0 NUsed=           0 NTot=          32
 NSgBfM=    83    83    83    83    83 MxSgAt=     9 MxSgA2=     9.
 Leave Link  302 at Tue Feb  7 16:41:52 2017, MaxMem=  1048576000 cpu:         1.4
 (Enter /mnt/data/applications/G09/g09/l303.exe)
 DipDrv:  MaxL=1.
 Leave Link  303 at Tue Feb  7 16:41:52 2017, MaxMem=  1048576000 cpu:         0.3
 (Enter /mnt/data/applications/G09/g09/l401.exe)
 ExpMin= 1.61D-01 ExpMax= 5.48D+03 ExpMxC= 8.25D+02 IAcc=1 IRadAn=         1 AccDes= 0.00D+00
 Harris functional with IExCor=  402 and IRadAn=       1 diagonalized for initial guess.
 HarFok:  IExCor=  402 AccDes= 0.00D+00 IRadAn=         1 IDoV= 1 UseB2=F ITyADJ=14
 ICtDFT=  3500011 ScaDFX=  1.000000  1.000000  1.000000  1.000000
 FoFCou: FMM=F IPFlag=           0 FMFlag=      100000 FMFlg1=           0
         NFxFlg=           0 DoJE=T BraDBF=F KetDBF=T FulRan=T
         wScrn=  0.000000 ICntrl=     500 IOpCl=  0 I1Cent=   200000004 NGrid=           0
         NMat0=    1 NMatS0=      1 NMatT0=    0 NMatD0=    1 NMtDS0=    0 NMtDT0=    0
 Symmetry not used in FoFCou.
 Harris En= -230.016102165472    
 JPrj=0 DoOrth=F DoCkMO=F.
 Leave Link  401 at Tue Feb  7 16:41:52 2017, MaxMem=  1048576000 cpu:         1.9
 (Enter /mnt/data/applications/G09/g09/l502.exe)
 Closed shell SCF:
 Using DIIS extrapolation, IDIIS=  1040.
 Two-electron integral symmetry not used.
 Keep R1 ints in memory in canonical form, NReq=7014116.
 IVT=       33873 IEndB=       33873 NGot=  1048576000 MDV=  1042464287
 LenX=  1042464287 LenY=  1042456957
 Requested convergence on RMS density matrix=1.00D-08 within 100 cycles.
 Requested convergence on MAX density matrix=1.00D-06.
 Requested convergence on             energy=1.00D-06.
 No special actions if energy rises.
 FoFCou: FMM=F IPFlag=           0 FMFlag=           0 FMFlg1=           0
         NFxFlg=           0 DoJE=F BraDBF=F KetDBF=F FulRan=T
         wScrn=  0.000000 ICntrl=     600 IOpCl=  0 I1Cent=           0 NGrid=           0
         NMat0=    1 NMatS0=   3486 NMatT0=    0 NMatD0=    1 NMtDS0=    0 NMtDT0=    0
 Symmetry not used in FoFCou.
 Integral accuracy reduced to 1.0D-05 until final iterations.

 Cycle   1  Pass 0  IDiag  1:
 E= -229.909559740857    
 DIIS: error= 3.53D-02 at cycle   1 NSaved=   1.
 NSaved= 1 IEnMin= 1 EnMin= -229.909559740857     IErMin= 1 ErrMin= 3.53D-02
 ErrMax= 3.53D-02  0.00D+00 EMaxC= 1.00D-01 BMatC= 9.65D-02 BMatP= 9.65D-02
 IDIUse=3 WtCom= 6.47D-01 WtEn= 3.53D-01
 Coeff-Com:  0.100D+01
 Coeff-En:   0.100D+01
 Coeff:      0.100D+01
 Gap=     0.207 Goal=   None    Shift=    0.000
 GapD=    0.207 DampG=1.000 DampE=0.500 DampFc=0.5000 IDamp=-1.
 Damping current iteration by 5.00D-01
 RMSDP=8.48D-03 MaxDP=1.37D-01              OVMax= 2.24D-01

 Cycle   2  Pass 0  IDiag  1:
 E= -229.948154447439     Delta-E=       -0.038594706582 Rises=F Damp=T
 DIIS: error= 1.04D-02 at cycle   2 NSaved=   2.
 NSaved= 2 IEnMin= 2 EnMin= -229.948154447439     IErMin= 2 ErrMin= 1.04D-02
 ErrMax= 1.04D-02  0.00D+00 EMaxC= 1.00D-01 BMatC= 1.19D-02 BMatP= 9.65D-02
 IDIUse=3 WtCom= 8.96D-01 WtEn= 1.04D-01
 Coeff-Com:  0.128D+00 0.872D+00
 Coeff-En:   0.226D+00 0.774D+00
 Coeff:      0.139D+00 0.861D+00
 Gap=     0.217 Goal=   None    Shift=    0.000
 RMSDP=2.78D-03 MaxDP=3.92D-02 DE=-3.86D-02 OVMax= 1.90D-01

 Cycle   3  Pass 0  IDiag  1:
 E= -229.999391561340     Delta-E=       -0.051237113901 Rises=F Damp=F
 DIIS: error= 1.44D-02 at cycle   3 NSaved=   3.
 NSaved= 3 IEnMin= 3 EnMin= -229.999391561340     IErMin= 2 ErrMin= 1.04D-02
 ErrMax= 1.44D-02  0.00D+00 EMaxC= 1.00D-01 BMatC= 1.42D-02 BMatP= 1.19D-02
 IDIUse=2 WtCom= 0.00D+00 WtEn= 1.00D+00
 Coeff-En:   0.000D+00 0.000D+00 0.100D+01
 Coeff:      0.000D+00 0.000D+00 0.100D+01
 Gap=     0.214 Goal=   None    Shift=    0.000
 RMSDP=3.88D-03 MaxDP=7.12D-02 DE=-5.12D-02 OVMax= 1.54D-01

 Cycle   4  Pass 0  IDiag  1:
 E= -229.952089306007     Delta-E=        0.047302255333 Rises=F Damp=F
 DIIS: error= 3.35D-02 at cycle   4 NSaved=   4.
 NSaved= 4 IEnMin= 3 EnMin= -229.999391561340     IErMin= 2 ErrMin= 1.04D-02
 ErrMax= 3.35D-02  0.00D+00 EMaxC= 1.00D-01 BMatC= 6.34D-02 BMatP= 1.19D-02
 IDIUse=2 WtCom= 0.00D+00 WtEn= 1.00D+00
 Coeff-En:   0.000D+00 0.000D+00 0.764D+00 0.236D+00
 Coeff:      0.000D+00 0.000D+00 0.764D+00 0.236D+00
 Gap=     0.223 Goal=   None    Shift=    0.000
 RMSDP=1.96D-03 MaxDP=3.63D-02 DE= 4.73D-02 OVMax= 8.46D-02

 Cycle   5  Pass 0  IDiag  1:
 E= -230.009401065863     Delta-E=       -0.057311759855 Rises=F Damp=F
 DIIS: error= 8.05D-03 at cycle   5 NSaved=   5.
 NSaved= 5 IEnMin= 5 EnMin= -230.009401065863     IErMin= 5 ErrMin= 8.05D-03
 ErrMax= 8.05D-03  0.00D+00 EMaxC= 1.00D-01 BMatC= 3.98D-03 BMatP= 1.19D-02
 IDIUse=3 WtCom= 9.20D-01 WtEn= 8.05D-02
 Coeff-Com: -0.555D-02 0.244D-01 0.241D+00-0.109D+00 0.849D+00
 Coeff-En:   0.000D+00 0.000D+00 0.267D+00 0.000D+00 0.733D+00
 Coeff:     -0.511D-02 0.225D-01 0.243D+00-0.100D+00 0.839D+00
 Gap=     0.227 Goal=   None    Shift=    0.000
 RMSDP=7.08D-04 MaxDP=1.21D-02 DE=-5.73D-02 OVMax= 2.81D-02

 Cycle   6  Pass 0  IDiag  1:
 E= -230.013270599092     Delta-E=       -0.003869533229 Rises=F Damp=F
 DIIS: error= 4.90D-04 at cycle   6 NSaved=   6.
 NSaved= 6 IEnMin= 6 EnMin= -230.013270599092     IErMin= 6 ErrMin= 4.90D-04
 ErrMax= 4.90D-04  0.00D+00 EMaxC= 1.00D-01 BMatC= 1.28D-05 BMatP= 3.98D-03
 IDIUse=3 WtCom= 9.95D-01 WtEn= 4.90D-03
 Coeff-Com: -0.501D-02 0.120D-01 0.909D-01-0.666D-01 0.434D+00 0.535D+00
 Coeff-En:   0.000D+00 0.000D+00 0.000D+00 0.000D+00 0.000D+00 0.100D+01
 Coeff:     -0.498D-02 0.119D-01 0.905D-01-0.663D-01 0.432D+00 0.537D+00
 Gap=     0.228 Goal=   None    Shift=    0.000
 RMSDP=4.20D-05 MaxDP=7.42D-04 DE=-3.87D-03 OVMax= 1.72D-03

 Cycle   7  Pass 0  IDiag  1:
 E= -230.013283900329     Delta-E=       -0.000013301238 Rises=F Damp=F
 DIIS: error= 4.54D-05 at cycle   7 NSaved=   7.
 NSaved= 7 IEnMin= 7 EnMin= -230.013283900329     IErMin= 7 ErrMin= 4.54D-05
 ErrMax= 4.54D-05  0.00D+00 EMaxC= 1.00D-01 BMatC= 1.54D-07 BMatP= 1.28D-05
 IDIUse=1 WtCom= 1.00D+00 WtEn= 0.00D+00
 Coeff-Com: -0.199D-03-0.167D-03 0.117D-01-0.632D-02 0.512D-01 0.147D+00
 Coeff-Com:  0.797D+00
 Coeff:     -0.199D-03-0.167D-03 0.117D-01-0.632D-02 0.512D-01 0.147D+00
 Coeff:      0.797D+00
 Gap=     0.228 Goal=   None    Shift=    0.000
 RMSDP=3.83D-06 MaxDP=5.26D-05 DE=-1.33D-05 OVMax= 1.07D-04

 Initial convergence to 1.0D-05 achieved.  Increase integral accuracy.
 Cycle   8  Pass 1  IDiag  1:
 E= -230.013314424280     Delta-E=       -0.000030523951 Rises=F Damp=F
 DIIS: error= 1.43D-05 at cycle   1 NSaved=   1.
 NSaved= 1 IEnMin= 1 EnMin= -230.013314424280     IErMin= 1 ErrMin= 1.43D-05
 ErrMax= 1.43D-05  0.00D+00 EMaxC= 1.00D-01 BMatC= 1.78D-08 BMatP= 1.78D-08
 IDIUse=1 WtCom= 1.00D+00 WtEn= 0.00D+00
 Coeff-Com:  0.100D+01
 Coeff:      0.100D+01
 Gap=     0.228 Goal=   None    Shift=    0.000
 RMSDP=3.83D-06 MaxDP=5.26D-05 DE=-3.05D-05 OVMax= 6.95D-05

 Cycle   9  Pass 1  IDiag  1:
 E= -230.013314440976     Delta-E=       -0.000000016696 Rises=F Damp=F
 DIIS: error= 9.32D-06 at cycle   2 NSaved=   2.
 NSaved= 2 IEnMin= 2 EnMin= -230.013314440976     IErMin= 2 ErrMin= 9.32D-06
 ErrMax= 9.32D-06  0.00D+00 EMaxC= 1.00D-01 BMatC= 5.64D-09 BMatP= 1.78D-08
 IDIUse=1 WtCom= 1.00D+00 WtEn= 0.00D+00
 Coeff-Com:  0.272D+00 0.728D+00
 Coeff:      0.272D+00 0.728D+00
 Gap=     0.228 Goal=   None    Shift=    0.000
 RMSDP=1.83D-06 MaxDP=3.12D-05 DE=-1.67D-08 OVMax= 6.90D-05

 Cycle  10  Pass 1  IDiag  1:
 E= -230.013314437163     Delta-E=        0.000000003813 Rises=F Damp=F
 DIIS: error= 1.35D-05 at cycle   3 NSaved=   3.
 NSaved= 3 IEnMin= 2 EnMin= -230.013314440976     IErMin= 2 ErrMin= 9.32D-06
 ErrMax= 1.35D-05  0.00D+00 EMaxC= 1.00D-01 BMatC= 9.76D-09 BMatP= 5.64D-09
 IDIUse=1 WtCom= 1.00D+00 WtEn= 0.00D+00
 Coeff-Com: -0.246D-01 0.579D+00 0.446D+00
 Coeff:     -0.246D-01 0.579D+00 0.446D+00
 Gap=     0.228 Goal=   None    Shift=    0.000
 RMSDP=1.02D-06 MaxDP=2.00D-05 DE= 3.81D-09 OVMax= 4.23D-05

 Cycle  11  Pass 1  IDiag  1:
 E= -230.013314446464     Delta-E=       -0.000000009301 Rises=F Damp=F
 DIIS: error= 4.71D-07 at cycle   4 NSaved=   4.
 NSaved= 4 IEnMin= 4 EnMin= -230.013314446464     IErMin= 4 ErrMin= 4.71D-07
 ErrMax= 4.71D-07  0.00D+00 EMaxC= 1.00D-01 BMatC= 2.59D-11 BMatP= 5.64D-09
 IDIUse=1 WtCom= 1.00D+00 WtEn= 0.00D+00
 Coeff-Com: -0.147D-01 0.252D+00 0.199D+00 0.564D+00
 Coeff:     -0.147D-01 0.252D+00 0.199D+00 0.564D+00
 Gap=     0.228 Goal=   None    Shift=    0.000
 RMSDP=5.71D-08 MaxDP=1.24D-06 DE=-9.30D-09 OVMax= 1.63D-06

 Cycle  12  Pass 1  IDiag  1:
 E= -230.013314446480     Delta-E=       -0.000000000016 Rises=F Damp=F
 DIIS: error= 2.62D-07 at cycle   5 NSaved=   5.
 NSaved= 5 IEnMin= 5 EnMin= -230.013314446480     IErMin= 5 ErrMin= 2.62D-07
 ErrMax= 2.62D-07  0.00D+00 EMaxC= 1.00D-01 BMatC= 4.74D-12 BMatP= 2.59D-11
 IDIUse=1 WtCom= 1.00D+00 WtEn= 0.00D+00
 Coeff-Com: -0.405D-02 0.508D-01 0.432D-01 0.307D+00 0.603D+00
 Coeff:     -0.405D-02 0.508D-01 0.432D-01 0.307D+00 0.603D+00
 Gap=     0.228 Goal=   None    Shift=    0.000
 RMSDP=2.35D-08 MaxDP=5.99D-07 DE=-1.60D-11 OVMax= 1.03D-06

 Cycle  13  Pass 1  IDiag  1:
 E= -230.013314446485     Delta-E=       -0.000000000005 Rises=F Damp=F
 DIIS: error= 4.74D-08 at cycle   6 NSaved=   6.
 NSaved= 6 IEnMin= 6 EnMin= -230.013314446485     IErMin= 6 ErrMin= 4.74D-08
 ErrMax= 4.74D-08  0.00D+00 EMaxC= 1.00D-01 BMatC= 2.75D-13 BMatP= 4.74D-12
 IDIUse=1 WtCom= 1.00D+00 WtEn= 0.00D+00
 Coeff-Com: -0.319D-03-0.180D-02 0.343D-03 0.682D-01 0.260D+00 0.673D+00
 Coeff:     -0.319D-03-0.180D-02 0.343D-03 0.682D-01 0.260D+00 0.673D+00
 Gap=     0.228 Goal=   None    Shift=    0.000
 RMSDP=7.08D-09 MaxDP=9.51D-08 DE=-5.06D-12 OVMax= 2.16D-07

 SCF Done:  E(RB3LYP) =  -230.013314446     A.U. after   13 cycles
            NFock= 13  Conv=0.71D-08     -V/T= 2.0110
 KE= 2.275010411364D+02 PE=-8.509043195481D+02 EE= 2.356189820425D+02
 Leave Link  502 at Tue Feb  7 16:41:54 2017, MaxMem=  1048576000 cpu:        13.2
 (Enter /mnt/data/applications/G09/g09/l601.exe)
 Copying SCF densities to generalized density rwf, IOpCl= 0 IROHF=0.

 **********************************************************************

            Population analysis using the SCF density.

 **********************************************************************

 Alpha  occ. eigenvalues --  -19.21368 -10.24040 -10.24039 -10.18943 -10.18902
 Alpha  occ. eigenvalues --   -1.08481  -0.78268  -0.73074  -0.58197  -0.57087
 Alpha  occ. eigenvalues --   -0.52821  -0.45166  -0.43028  -0.40018  -0.39212
 Alpha  occ. eigenvalues --   -0.35791  -0.27053  -0.22021
 Alpha virt. eigenvalues --    0.00748   0.07151   0.11102   0.12250   0.15170
 Alpha virt. eigenvalues --    0.16474   0.18699   0.19844   0.30651   0.35959
 Alpha virt. eigenvalues --    0.41662   0.52081   0.53655   0.56594   0.57997
 Alpha virt. eigenvalues --    0.58118   0.58994   0.61371   0.61887   0.65458
 Alpha virt. eigenvalues --    0.67683   0.80396   0.81738   0.83485   0.90373
 Alpha virt. eigenvalues --    0.91233   0.97748   0.97992   1.00660   1.02954
 Alpha virt. eigenvalues --    1.12606   1.13252   1.35693   1.37072   1.37516
 Alpha virt. eigenvalues --    1.39540   1.48704   1.53261   1.56609   1.57506
 Alpha virt. eigenvalues --    1.67870   1.82178   1.92219   1.98727   1.99035
 Alpha virt. eigenvalues --    2.02511   2.18916   2.20576   2.21098   2.21760
 Alpha virt. eigenvalues --    2.29532   2.36101   2.52634   2.61067   2.62157
 Alpha virt. eigenvalues --    2.64105   2.75902   2.89237   2.92648   3.03908
 Alpha virt. eigenvalues --    3.91711   4.12068   4.12441   4.29120   4.45109
          Condensed to atoms (all electrons):
               1          2          3          4          5          6
     1  C    4.855642   0.576504  -0.053550  -0.104121   0.370151  -0.038525
     2  C    0.576504   4.912169   0.510222  -0.053538  -0.043671   0.359965
     3  C   -0.053550   0.510222   4.912182   0.576490   0.003216  -0.036310
     4  C   -0.104121  -0.053538   0.576490   4.855705   0.004596   0.005585
     5  H    0.370151  -0.043671   0.003216   0.004596   0.532319  -0.000144
     6  H   -0.038525   0.359965  -0.036310   0.005585  -0.000144   0.568047
     7  H    0.005587  -0.036316   0.359970  -0.038521  -0.000109  -0.001986
     8  H    0.004595   0.003216  -0.043657   0.370163  -0.000094  -0.000109
     9  O    0.308007  -0.055263  -0.055267   0.308001  -0.032318   0.003199
               7          8          9
     1  C    0.005587   0.004595   0.308007
     2  C   -0.036316   0.003216  -0.055263
     3  C    0.359970  -0.043657  -0.055267
     4  C   -0.038521   0.370163   0.308001
     5  H   -0.000109  -0.000094  -0.032318
     6  H   -0.001986  -0.000109   0.003199
     7  H    0.568039  -0.000145   0.003199
     8  H   -0.000145   0.532288  -0.032324
     9  O    0.003199  -0.032324   7.970211
 Mulliken charges:
               1
     1  C    0.075710
     2  C   -0.173288
     3  C   -0.173295
     4  C    0.075640
     5  H    0.166054
     6  H    0.140277
     7  H    0.140282
     8  H    0.166066
     9  O   -0.417445
 Sum of Mulliken charges =   0.00000
 Mulliken charges with hydrogens summed into heavy atoms:
               1
     1  C    0.241763
     2  C   -0.033011
     3  C   -0.033013
     4  C    0.241706
     9  O   -0.417445
 Electronic spatial extent (au):  <R**2>=            702.9593
 Charge=              0.0000 electrons
 Dipole moment (field-independent basis, Debye):
    X=              0.6845    Y=             -0.2117    Z=             -0.0001  Tot=              0.7165
 Quadrupole moment (field-independent basis, Debye-Ang):
   XX=            -29.2072   YY=            -23.9254   ZZ=            -31.3504
   XY=              2.4416   XZ=              0.3311   YZ=             -0.1032
 Traceless Quadrupole moment (field-independent basis, Debye-Ang):
   XX=             -1.0462   YY=              4.2356   ZZ=             -3.1894
   XY=              2.4416   XZ=              0.3311   YZ=             -0.1032
 Octapole moment (field-independent basis, Debye-Ang**2):
  XXX=            107.1750  YYY=            -78.4041  ZZZ=            -45.4925  XYY=             31.0767
  XXY=            -40.3699  XXZ=            -14.1272  XZZ=             36.5796  YZZ=            -35.3507
  YYZ=            -11.5751  XYZ=              1.1822
 Hexadecapole moment (field-independent basis, Debye-Ang**3):
 XXXX=           -430.7446 YYYY=           -332.3834 ZZZZ=            -74.9407 XXXY=            145.1533
 XXXZ=             51.8389 YYYX=             91.6364 YYYZ=            -37.9292 ZZZX=             52.9257
 ZZZY=            -51.2451 XXYY=           -135.7739 XXZZ=            -84.8570 YYZZ=            -85.4971
 XXYZ=            -19.5277 YYXZ=             15.0350 ZZXY=             40.0653
 N-N= 1.577709819227D+02 E-N=-8.509043251116D+02  KE= 2.275010411364D+02
 No NMR shielding tensors so no spin-rotation constants.
 Leave Link  601 at Tue Feb  7 16:41:54 2017, MaxMem=  1048576000 cpu:         1.1
 (Enter /mnt/data/applications/G09/g09/l701.exe)
 Compute integral first derivatives.
 ... and contract with generalized density number  0.
 Leave Link  701 at Tue Feb  7 16:41:54 2017, MaxMem=  1048576000 cpu:         1.2
 (Enter /mnt/data/applications/G09/g09/l702.exe)
 L702 exits ... SP integral derivatives will be done elsewhere.
 Leave Link  702 at Tue Feb  7 16:41:54 2017, MaxMem=  1048576000 cpu:         0.2
 (Enter /mnt/data/applications/G09/g09/l703.exe)
 Compute integral first derivatives, UseDBF=F ICtDFT=           0.
 Integral derivatives from FoFJK, PRISM(SPDF).
 Calling FoFJK, ICntrl=      2127 FMM=F ISym2X=0 I1Cent= 0 IOpClX= 0 NMat=1 NMatS=1 NMatT=0.
 FoFJK:  IHMeth= 1 ICntrl=    2127 DoSepK=F KAlg= 0 I1Cent=   0 FoldK=F
 IRaf=         0 NMat=   1 IRICut=       1 DoRegI=T DoRafI=F ISym2E= 0.
 FoFCou: FMM=F IPFlag=           0 FMFlag=      100000 FMFlg1=         800
         NFxFlg=           0 DoJE=F BraDBF=F KetDBF=F FulRan=T
         wScrn=  0.000000 ICntrl=    2127 IOpCl=  0 I1Cent=           0 NGrid=           0
         NMat0=    1 NMatS0=      1 NMatT0=    0 NMatD0=    1 NMtDS0=    0 NMtDT0=    0
 Symmetry not used in FoFCou.
 Leave Link  703 at Tue Feb  7 16:41:55 2017, MaxMem=  1048576000 cpu:         4.9
 (Enter /mnt/data/applications/G09/g09/l716.exe)
 Dipole        = 2.69300750D-01-8.33063371D-02-3.22442235D-05
 Cartesian Forces:  Max     0.043412530 RMS     0.015969422
 Leave Link  716 at Tue Feb  7 16:41:55 2017, MaxMem=  1048576000 cpu:         0.2
 (Enter /mnt/data/applications/G09/g09/l120.exe)
 SvSCFP is copying densities from files   528 and   530 to   603.
 ONIOM: saving gridpoint  2
 ONIOM: restoring gridpoint 17
 ONIOM: generating point  1 -- low level on model system.
 Leave Link  120 at Tue Feb  7 16:41:55 2017, MaxMem=  1048576000 cpu:         0.3
 (Enter /mnt/data/applications/G09/g09/l301.exe)
 Standard basis: STO-3G (5D, 7F)
 Ernie: Thresh=  0.10000D-02 Tol=  0.10000D-05 Strict=F.
    29 basis functions,    87 primitive gaussians,    29 cartesian basis functions
    18 alpha electrons       18 beta electrons
       nuclear repulsion energy       157.7709819227 Hartrees.
 IExCor=    0 DFT=F Ex=HF Corr=None ExCW=0 ScaHFX=  1.000000
 ScaDFX=  1.000000  1.000000  1.000000  1.000000 ScalE2=  1.000000  1.000000
 IRadAn=      0 IRanWt=     -1 IRanGd=            0 ICorTp=0 IEmpDi=  4
 NAtoms=    9 NActive=    9 NUniq=    9 SFac= 1.00D+00 NAtFMM=   60 NAOKFM=F Big=F
 Integral buffers will be    131072 words long.
 Raffenetti 1 integral format.
 Two-electron integral symmetry is turned off.
 Leave Link  301 at Tue Feb  7 16:41:55 2017, MaxMem=  1048576000 cpu:         0.5
 (Enter /mnt/data/applications/G09/g09/l402.exe)
 External calculation of energy and first derivatives.
 Running external command "./sictwo_files/sictwo_g09d01 M"
         input file       "/scratch/Gau-9706.EIn"
         output file      "/scratch/Gau-9706.EOu"
         message file     "/scratch/Gau-9706.EMs"
         fchk file        "/scratch/Gau-9706.EFC"
         mat. el file     "/scratch/Gau-9706.EUF"

---------------------------- SICTWO Version 1.0 STARTED -----------------------------

MM calculations started
MM calculations finished ....
Information recovery

---------------------------- SICTWO Version 1.0 FINISHED -----------------------------

 Recovered energy= 0.147828803164E-01 dipole=      0.737681893125     -0.228189598940      0.000000000000
 Energy=    1.478288032E-02 NIter=   0.
 Dipole moment=       0.737682      -0.228190       0.000000
 Leave Link  402 at Tue Feb  7 16:41:58 2017, MaxMem=  1048576000 cpu:        16.3
 (Enter /mnt/data/applications/G09/g09/l601.exe)
 Leave Link  601 at Tue Feb  7 16:41:58 2017, MaxMem=  1048576000 cpu:         0.2
 (Enter /mnt/data/applications/G09/g09/l716.exe)
 Dipole        = 7.37681893D-01-2.28189599D-01 0.00000000D+00
 Cartesian Forces:  Max     0.032509774 RMS     0.012935485
 Leave Link  716 at Tue Feb  7 16:41:58 2017, MaxMem=  1048576000 cpu:         0.2
 (Enter /mnt/data/applications/G09/g09/l120.exe)
 SvSCFP did not find density file   528.
 ONIOM: saving gridpoint  1
 ONIOM: restoring gridpoint  3
 ONIOM: calculating energy.
 ONIOM: gridpoint  1 method:  low   system:  model energy:     0.014782880316
 ONIOM: gridpoint  2 method:  high  system:  model energy:  -230.013314446485
 ONIOM: gridpoint  3 method:  low   system:  real  energy:     0.014782880316
 ONIOM: extrapolated energy =    -230.013314446485
 ONIOM: calculating first derivatives.
 ONIOM: calculating electric field derivatives.
 ONIOM: Integrating ONIOM file  4 number   619
 ONIOM: Dipole        = 2.69300750D-01-8.33063371D-02-3.22442235D-05
 ONIOM: Dipole moment (Debye):
    X=     0.6845    Y=    -0.2117    Z=    -0.0001  Tot=     0.7165
 ONIOM: Integrating ONIOM file  5 number   695
 Nuclear Quadrupole Tensors: 
                 1             2             3             4             5 
      1   0.202216D+00  0.818533D-01  0.887857D-01 -0.111685D+00 -0.497881D-01
      2   0.183270D+00 -0.102886D-01 -0.427984D-04 -0.275656D+00 -0.209037D+00
      3  -0.246745D+00  0.735985D-01  0.666407D-01  0.671358D-01 -0.111751D+00
      4   0.690326D-05 -0.207042D-04  0.000000D+00  0.158966D-04  0.266783D-04
      5  -0.239364D-04 -0.180110D-04 -0.139820D-04  0.451320D-05  0.284269D-04
      6   0.445295D-01 -0.155452D+00 -0.155426D+00  0.445490D-01  0.161539D+00
                 6             7             8             9 
      1  -0.141860D-01 -0.256345D+00  0.000000D+00  0.490505D+00
      2   0.214154D+00 -0.139845D+00  0.000000D+00 -0.589446D+00
      3  -0.147691D+00  0.944608D-01  0.000000D+00 -0.123326D+01
      4  -0.717071D-05  0.951453D-05  0.000000D+00  0.131142D-03
      5   0.837745D-05  0.450970D-05  0.000000D+00  0.558777D-04
      6   0.161877D+00  0.161884D+00  0.000000D+00  0.742759D+00
 Saving ESP charges from gridpoint 2
 Leave Link  120 at Tue Feb  7 16:41:58 2017, MaxMem=  1048576000 cpu:         0.0
 (Enter /mnt/data/applications/G09/g09/l716.exe)
 Dipole        = 2.69300750D-01-8.33063371D-02-3.22442235D-05
 -------------------------------------------------------------------
 Center     Atomic                   Forces (Hartrees/Bohr)
 Number     Number              X              Y              Z
 -------------------------------------------------------------------
      1        6           0.043412530    0.021458784    0.000005450
      2        6          -0.029506052    0.004469392    0.000005639
      3        6          -0.026934812    0.012997945   -0.000014428
      4        6           0.023728787   -0.042277059    0.000013232
      5        1          -0.002874429    0.012802150   -0.000002073
      6        1          -0.002325726    0.001132823    0.000000484
      7        1          -0.002555901    0.000388539   -0.000000469
      8        1          -0.009577321   -0.008921901    0.000004635
      9        8           0.006632923   -0.002050674   -0.000012470
 -------------------------------------------------------------------
 Cartesian Forces:  Max     0.043412530 RMS     0.015969422
 Leave Link  716 at Tue Feb  7 16:41:58 2017, MaxMem=  1048576000 cpu:         0.2
 (Enter /mnt/data/applications/G09/g09/l103.exe)

 GradGradGradGradGradGradGradGradGradGradGradGradGradGradGradGradGradGrad
 Berny optimization.
 FormGI is forming the generalized inverse of G from B-inverse, IUseBI=4.
 Internal  Forces:  Max     0.035109294 RMS     0.011619697
 Search for a local minimum.
 Step number   1 out of a maximum of   48
 All quantities printed in internal units (Hartrees-Bohrs-Radians)
 RMS Force = .11620D-01 SwitMx=.10000D-02 MixMth= 1
 Mixed Optimization -- RFO/linear search
 Second derivative matrix not updated -- first step.
 ITU=  0
     Eigenvalues ---    0.01771   0.01826   0.01876   0.01938   0.01992
     Eigenvalues ---    0.02004   0.16000   0.16000   0.16000   0.16000
     Eigenvalues ---    0.22000   0.22922   0.34897   0.34902   0.35418
     Eigenvalues ---    0.35419   0.38260   0.40324   0.44439   0.45742
     Eigenvalues ---    0.46621
 RFO step:  Lambda=-1.38094692D-02 EMin= 1.77106050D-02
 Linear search not attempted -- first point.
 Iteration  1 RMS(Cart)=  0.04388554 RMS(Int)=  0.00096435
 Iteration  2 RMS(Cart)=  0.00089188 RMS(Int)=  0.00010128
 Iteration  3 RMS(Cart)=  0.00000035 RMS(Int)=  0.00010128
 ITry= 1 IFail=0 DXMaxC= 1.60D-01 DCOld= 1.00D+10 DXMaxT= 3.00D-01 DXLimC= 3.00D+00 Rises=F
 Variable       Old X    -DE/DX   Delta X   Delta X   Delta X     New X
                                 (Linear)    (Quad)   (Total)
    R1        2.64892  -0.03506   0.00000  -0.07449  -0.07454   2.57439
    R2        2.05842  -0.00794   0.00000  -0.02189  -0.02189   2.03653
    R3        2.63012  -0.02622   0.00000  -0.05567  -0.05553   2.57459
    R4        2.71151  -0.01089   0.00000  -0.02401  -0.02419   2.68733
    R5        2.05001  -0.00229   0.00000  -0.00623  -0.00623   2.04378
    R6        2.64911  -0.03511   0.00000  -0.07463  -0.07468   2.57443
    R7        2.05000  -0.00229   0.00000  -0.00621  -0.00621   2.04378
    R8        2.05835  -0.00792   0.00000  -0.02183  -0.02183   2.03652
    R9        2.63013  -0.02622   0.00000  -0.05569  -0.05554   2.57459
    A1        2.27063   0.00527   0.00000   0.03962   0.03959   2.31022
    A2        1.89225   0.01096   0.00000   0.04447   0.04453   1.93678
    A3        2.12031  -0.01623   0.00000  -0.08409  -0.08412   2.03619
    A4        1.87077  -0.00550   0.00000  -0.01957  -0.01980   1.85097
    A5        2.20681   0.00152   0.00000   0.00271   0.00283   2.20964
    A6        2.20561   0.00398   0.00000   0.01685   0.01697   2.22258
    A7        1.87074  -0.00548   0.00000  -0.01951  -0.01975   1.85100
    A8        2.20561   0.00398   0.00000   0.01687   0.01699   2.22260
    A9        2.20683   0.00151   0.00000   0.00264   0.00276   2.20959
   A10        2.27088   0.00524   0.00000   0.03945   0.03942   2.31031
   A11        1.89218   0.01098   0.00000   0.04450   0.04456   1.93674
   A12        2.12012  -0.01621   0.00000  -0.08395  -0.08398   2.03614
   A13        1.89884  -0.01096   0.00000  -0.04990  -0.04954   1.84930
    D1       -3.14148   0.00000   0.00000  -0.00008  -0.00008  -3.14155
    D2        0.00009   0.00000   0.00000  -0.00002  -0.00002   0.00007
    D3        0.00001   0.00000   0.00000  -0.00003  -0.00003  -0.00002
    D4        3.14157   0.00000   0.00000   0.00003   0.00003  -3.14159
    D5        0.00007   0.00000   0.00000  -0.00009  -0.00009  -0.00002
    D6        3.14156   0.00000   0.00000  -0.00004  -0.00004   3.14152
    D7       -0.00008   0.00000   0.00000   0.00014   0.00013   0.00006
    D8       -3.14156   0.00000   0.00000   0.00002   0.00001  -3.14155
    D9        3.14154   0.00000   0.00000   0.00008   0.00008  -3.14156
   D10        0.00006   0.00000   0.00000  -0.00004  -0.00004   0.00002
   D11       -3.14146   0.00000   0.00000  -0.00010  -0.00010  -3.14155
   D12        0.00012  -0.00001   0.00000  -0.00019  -0.00019  -0.00007
   D13        0.00003   0.00000   0.00000   0.00002   0.00002   0.00005
   D14       -3.14158   0.00000   0.00000  -0.00007  -0.00007   3.14153
   D15       -0.00012   0.00001   0.00000   0.00018   0.00018   0.00006
   D16        3.14146   0.00000   0.00000   0.00010   0.00010   3.14156
         Item               Value     Threshold  Converged?
 Maximum Force            0.035109     0.000450     NO 
 RMS     Force            0.011620     0.000300     NO 
 Maximum Displacement     0.160049     0.001800     NO 
 RMS     Displacement     0.044274     0.001200     NO 
 Predicted change in Energy=-7.210206D-03
 Lowest energy point so far.  Saving SCF results.
 GradGradGradGradGradGradGradGradGradGradGradGradGradGradGradGradGradGrad

 Leave Link  103 at Tue Feb  7 16:41:58 2017, MaxMem=  1048576000 cpu:         0.1
 (Enter /mnt/data/applications/G09/g09/l202.exe)
                          Input orientation:                          
 ---------------------------------------------------------------------
 Center     Atomic      Atomic             Coordinates (Angstroms)
 Number     Number       Type             X           Y           Z
 ---------------------------------------------------------------------
      1          6    10061000       -1.894667    0.214074    0.483723
      2          6    10061000       -0.532626    0.187147    0.483760
      3          6    10061000       -0.112461    1.545731    0.483666
      4          6    10061000       -1.251895    2.292478    0.483655
      5          1    10011000       -2.636472   -0.567672    0.483796
      6          1    10011000        0.094963   -0.693660    0.483820
      7          1    10011000        0.902800    1.918479    0.483627
      8          1    10011000       -1.422922    3.356502    0.483566
      9          8    10081000       -2.356986    1.495647    0.483640
 ---------------------------------------------------------------------
                    Distance matrix (angstroms):
                    1          2          3          4          5
     1  C    0.000000
     2  C    1.362308   0.000000
     3  C    2.224763   1.422072   0.000000
     4  C    2.175528   2.224807   1.362330   0.000000
     5  H    1.077683   2.235156   3.291976   3.177659   0.000000
     6  H    2.186918   1.081522   2.248977   3.275828   2.734340
     7  H    3.275793   2.248990   1.081524   2.186912   4.325204
     8  H    3.177641   3.292027   2.235218   1.077681   4.107536
     9  O    1.362413   2.245097   2.245084   1.362412   2.082161
                    6          7          8          9
     6  H    0.000000
     7  H    2.734204   0.000000
     8  H    4.325251   2.734391   0.000000
     9  O    3.287114   3.287094   2.082129   0.000000
 Symmetry turned off by external request.
 Stoichiometry    C4H4O
 Framework group  C1[X(C4H4O)]
 Deg. of freedom    21
 Full point group                 C1      NOp   1
 Rotational constants (GHZ):      9.5715007      9.2030252      4.6918235
 Leave Link  202 at Tue Feb  7 16:41:58 2017, MaxMem=  1048576000 cpu:         0.0
 (Enter /mnt/data/applications/G09/g09/l120.exe)
 SvSCFP did not find density file   528.
 ONIOM: saving gridpoint 17
 ONIOM: restoring gridpoint  3
 ONIOM: restoring gridpoint  3 on chk file.
 ONIOM: generating point  3 -- low level on real system.
 Leave Link  120 at Tue Feb  7 16:41:58 2017, MaxMem=  1048576000 cpu:         0.0
 (Enter /mnt/data/applications/G09/g09/l301.exe)
 Standard basis: STO-3G (5D, 7F)
 Ernie: Thresh=  0.10000D-02 Tol=  0.10000D-05 Strict=F.
    29 basis functions,    87 primitive gaussians,    29 cartesian basis functions
    18 alpha electrons       18 beta electrons
       nuclear repulsion energy       160.9553848858 Hartrees.
 IExCor=    0 DFT=F Ex=HF Corr=None ExCW=0 ScaHFX=  1.000000
 ScaDFX=  1.000000  1.000000  1.000000  1.000000 ScalE2=  1.000000  1.000000
 IRadAn=      0 IRanWt=     -1 IRanGd=            0 ICorTp=0 IEmpDi=  4
 NAtoms=    9 NActive=    9 NUniq=    9 SFac= 1.00D+00 NAtFMM=   60 NAOKFM=F Big=F
 Integral buffers will be    131072 words long.
 Raffenetti 1 integral format.
 Two-electron integral symmetry is turned off.
 Leave Link  301 at Tue Feb  7 16:41:59 2017, MaxMem=  1048576000 cpu:         0.4
 (Enter /mnt/data/applications/G09/g09/l402.exe)
 External calculation of energy and first derivatives.
 Running external command "./sictwo_files/sictwo_g09d01 R"
         input file       "/scratch/Gau-9706.EIn"
         output file      "/scratch/Gau-9706.EOu"
         message file     "/scratch/Gau-9706.EMs"
         fchk file        "/scratch/Gau-9706.EFC"
         mat. el file     "/scratch/Gau-9706.EUF"

---------------------------- SICTWO Version 1.0 STARTED -----------------------------

MM calculations started
MM calculations finished ....
Information recovery

---------------------------- SICTWO Version 1.0 FINISHED -----------------------------

 Recovered energy= 0.123112051654E-01 dipole=      0.707387756714     -0.218747270708      0.000000000000
 Energy=    1.231120517E-02 NIter=   0.
 Dipole moment=       0.707388      -0.218747       0.000000
 Leave Link  402 at Tue Feb  7 16:42:01 2017, MaxMem=  1048576000 cpu:        16.8
 (Enter /mnt/data/applications/G09/g09/l716.exe)
 Dipole        = 7.07387757D-01-2.18747271D-01 0.00000000D+00
 Cartesian Forces:  Max     0.025213400 RMS     0.011166640
 Leave Link  716 at Tue Feb  7 16:42:01 2017, MaxMem=  1048576000 cpu:         0.2
 (Enter /mnt/data/applications/G09/g09/l120.exe)
 SvSCFP did not find density file   528.
 ONIOM: saving gridpoint  3
 ONIOM: restoring gridpoint  2
 ONIOM: restoring gridpoint  2 on chk file.
 ONIOM: generating point  2 -- high level on model system.
 Leave Link  120 at Tue Feb  7 16:42:01 2017, MaxMem=  1048576000 cpu:         0.0
 (Enter /mnt/data/applications/G09/g09/l301.exe)
 Standard basis: 6-31G(d) (6D, 7F)
 Ernie: Thresh=  0.10000D-02 Tol=  0.10000D-05 Strict=F.
    83 basis functions,   156 primitive gaussians,    83 cartesian basis functions
    18 alpha electrons       18 beta electrons
       nuclear repulsion energy       160.9553848858 Hartrees.
 IExCor=  402 DFT=T Ex+Corr=B3LYP ExCW=0 ScaHFX=  0.200000
 ScaDFX=  0.800000  0.720000  1.000000  0.810000 ScalE2=  1.000000  1.000000
 IRadAn=      0 IRanWt=     -1 IRanGd=            0 ICorTp=0 IEmpDi=  4
 NAtoms=    9 NActive=    9 NUniq=    9 SFac= 1.00D+00 NAtFMM=   60 NAOKFM=F Big=F
 Integral buffers will be    131072 words long.
 Raffenetti 2 integral format.
 Two-electron integral symmetry is turned off.
 Leave Link  301 at Tue Feb  7 16:42:01 2017, MaxMem=  1048576000 cpu:         0.5
 (Enter /mnt/data/applications/G09/g09/l302.exe)
 NPDir=0 NMtPBC=     1 NCelOv=     1 NCel=       1 NClECP=     1 NCelD=      1
         NCelK=      1 NCelE2=     1 NClLst=     1 CellRange=     0.0.
 One-electron integrals computed using PRISM.
 NBasis=    83 RedAO= T EigKep=  1.15D-03  NBF=    83
 NBsUse=    83 1.00D-06 EigRej= -1.00D+00 NBFU=    83
 Precomputing XC quadrature grid using
 IXCGrd= 4 IRadAn=           0 IRanWt=          -1 IRanGd=           0 AccXCQ= 0.00D+00.
 Generated NRdTot=       0 NPtTot=           0 NUsed=           0 NTot=          32
 NSgBfM=    83    83    83    83    83 MxSgAt=     9 MxSgA2=     9.
 Leave Link  302 at Tue Feb  7 16:42:02 2017, MaxMem=  1048576000 cpu:         1.3
 (Enter /mnt/data/applications/G09/g09/l303.exe)
 DipDrv:  MaxL=1.
 Leave Link  303 at Tue Feb  7 16:42:02 2017, MaxMem=  1048576000 cpu:         0.2
 (Enter /mnt/data/applications/G09/g09/l401.exe)
 Initial guess from the checkpoint file:  "F_1.chk"
 B after Tr=     0.021231   -0.006584    0.000024
         Rot=    1.000000    0.000004    0.000006   -0.000003 Ang=   0.00 deg.
 Guess basis will be translated and rotated to current coordinates.
 JPrj=2 DoOrth=T DoCkMO=T.
 Generating alternative initial guess.
 ExpMin= 1.61D-01 ExpMax= 5.48D+03 ExpMxC= 8.25D+02 IAcc=1 IRadAn=         1 AccDes= 0.00D+00
 Harris functional with IExCor=  402 and IRadAn=       1 diagonalized for initial guess.
 HarFok:  IExCor=  402 AccDes= 0.00D+00 IRadAn=         1 IDoV= 1 UseB2=F ITyADJ=14
 ICtDFT=  3500011 ScaDFX=  1.000000  1.000000  1.000000  1.000000
 FoFCou: FMM=F IPFlag=           0 FMFlag=      100000 FMFlg1=           0
         NFxFlg=           0 DoJE=T BraDBF=F KetDBF=T FulRan=T
         wScrn=  0.000000 ICntrl=     500 IOpCl=  0 I1Cent=   200000004 NGrid=           0
         NMat0=    1 NMatS0=      1 NMatT0=    0 NMatD0=    1 NMtDS0=    0 NMtDT0=    0
 Symmetry not used in FoFCou.
 Harris En= -230.030183584576    
 Leave Link  401 at Tue Feb  7 16:42:02 2017, MaxMem=  1048576000 cpu:         2.4
 (Enter /mnt/data/applications/G09/g09/l502.exe)
 Closed shell SCF:
 Using DIIS extrapolation, IDIIS=  1040.
 Two-electron integral symmetry not used.
 Keep R1 ints in memory in canonical form, NReq=7014116.
 IVT=       33873 IEndB=       33873 NGot=  1048576000 MDV=  1042464287
 LenX=  1042464287 LenY=  1042456957
 Requested convergence on RMS density matrix=1.00D-08 within 100 cycles.
 Requested convergence on MAX density matrix=1.00D-06.
 Requested convergence on             energy=1.00D-06.
 No special actions if energy rises.
 FoFCou: FMM=F IPFlag=           0 FMFlag=           0 FMFlg1=           0
         NFxFlg=           0 DoJE=F BraDBF=F KetDBF=F FulRan=T
         wScrn=  0.000000 ICntrl=     600 IOpCl=  0 I1Cent=           0 NGrid=           0
         NMat0=    1 NMatS0=   3486 NMatT0=    0 NMatD0=    1 NMtDS0=    0 NMtDT0=    0
 Symmetry not used in FoFCou.
 Integral accuracy reduced to 1.0D-05 until final iterations.

 Cycle   1  Pass 0  IDiag  1:
 E= -230.018282689627    
 DIIS: error= 4.00D-03 at cycle   1 NSaved=   1.
 NSaved= 1 IEnMin= 1 EnMin= -230.018282689627     IErMin= 1 ErrMin= 4.00D-03
 ErrMax= 4.00D-03  0.00D+00 EMaxC= 1.00D-01 BMatC= 1.54D-03 BMatP= 1.54D-03
 IDIUse=3 WtCom= 9.60D-01 WtEn= 4.00D-02
 Coeff-Com:  0.100D+01
 Coeff-En:   0.100D+01
 Coeff:      0.100D+01
 Gap=     1.496 Goal=   None    Shift=    0.000
 GapD=    1.496 DampG=2.000 DampE=1.000 DampFc=2.0000 IDamp=-1.
 RMSDP=7.19D-04 MaxDP=8.32D-03              OVMax= 1.09D-02

 Cycle   2  Pass 0  IDiag  1:
 E= -230.019938464367     Delta-E=       -0.001655774740 Rises=F Damp=F
 DIIS: error= 1.92D-03 at cycle   2 NSaved=   2.
 NSaved= 2 IEnMin= 2 EnMin= -230.019938464367     IErMin= 2 ErrMin= 1.92D-03
 ErrMax= 1.92D-03  0.00D+00 EMaxC= 1.00D-01 BMatC= 2.84D-04 BMatP= 1.54D-03
 IDIUse=3 WtCom= 9.81D-01 WtEn= 1.92D-02
 Coeff-Com:  0.237D+00 0.763D+00
 Coeff-En:   0.000D+00 0.100D+01
 Coeff:      0.232D+00 0.768D+00
 Gap=     0.242 Goal=   None    Shift=    0.000
 RMSDP=3.00D-04 MaxDP=3.04D-03 DE=-1.66D-03 OVMax= 5.95D-03

 Cycle   3  Pass 0  IDiag  1:
 E= -230.020133705510     Delta-E=       -0.000195241143 Rises=F Damp=F
 DIIS: error= 9.35D-04 at cycle   3 NSaved=   3.
 NSaved= 3 IEnMin= 3 EnMin= -230.020133705510     IErMin= 3 ErrMin= 9.35D-04
 ErrMax= 9.35D-04  0.00D+00 EMaxC= 1.00D-01 BMatC= 8.43D-05 BMatP= 2.84D-04
 IDIUse=3 WtCom= 9.91D-01 WtEn= 9.35D-03
 Coeff-Com: -0.115D-01 0.346D+00 0.665D+00
 Coeff-En:   0.000D+00 0.199D+00 0.801D+00
 Coeff:     -0.114D-01 0.345D+00 0.666D+00
 Gap=     0.242 Goal=   None    Shift=    0.000
 RMSDP=1.20D-04 MaxDP=1.44D-03 DE=-1.95D-04 OVMax= 2.28D-03

 Cycle   4  Pass 0  IDiag  1:
 E= -230.020213981457     Delta-E=       -0.000080275947 Rises=F Damp=F
 DIIS: error= 2.69D-04 at cycle   4 NSaved=   4.
 NSaved= 4 IEnMin= 4 EnMin= -230.020213981457     IErMin= 4 ErrMin= 2.69D-04
 ErrMax= 2.69D-04  0.00D+00 EMaxC= 1.00D-01 BMatC= 3.34D-06 BMatP= 8.43D-05
 IDIUse=3 WtCom= 9.97D-01 WtEn= 2.69D-03
 Coeff-Com: -0.832D-02 0.178D+00 0.369D+00 0.462D+00
 Coeff-En:   0.000D+00 0.000D+00 0.000D+00 0.100D+01
 Coeff:     -0.829D-02 0.177D+00 0.368D+00 0.463D+00
 Gap=     0.242 Goal=   None    Shift=    0.000
 RMSDP=2.35D-05 MaxDP=5.46D-04 DE=-8.03D-05 OVMax= 8.54D-04

 Cycle   5  Pass 0  IDiag  1:
 E= -230.020216277329     Delta-E=       -0.000002295872 Rises=F Damp=F
 DIIS: error= 1.01D-04 at cycle   5 NSaved=   5.
 NSaved= 5 IEnMin= 5 EnMin= -230.020216277329     IErMin= 5 ErrMin= 1.01D-04
 ErrMax= 1.01D-04  0.00D+00 EMaxC= 1.00D-01 BMatC= 5.71D-07 BMatP= 3.34D-06
 IDIUse=3 WtCom= 9.99D-01 WtEn= 1.01D-03
 Coeff-Com: -0.259D-02 0.149D-01 0.517D-01 0.296D+00 0.640D+00
 Coeff-En:   0.000D+00 0.000D+00 0.000D+00 0.181D+00 0.819D+00
 Coeff:     -0.258D-02 0.149D-01 0.517D-01 0.296D+00 0.640D+00
 Gap=     0.242 Goal=   None    Shift=    0.000
 RMSDP=8.60D-06 MaxDP=1.55D-04 DE=-2.30D-06 OVMax= 3.42D-04

 Initial convergence to 1.0D-05 achieved.  Increase integral accuracy.
 Cycle   6  Pass 1  IDiag  1:
 E= -230.020252608670     Delta-E=       -0.000036331341 Rises=F Damp=F
 DIIS: error= 1.65D-05 at cycle   1 NSaved=   1.
 NSaved= 1 IEnMin= 1 EnMin= -230.020252608670     IErMin= 1 ErrMin= 1.65D-05
 ErrMax= 1.65D-05  0.00D+00 EMaxC= 1.00D-01 BMatC= 2.56D-08 BMatP= 2.56D-08
 IDIUse=1 WtCom= 1.00D+00 WtEn= 0.00D+00
 Coeff-Com:  0.100D+01
 Coeff:      0.100D+01
 Gap=     0.242 Goal=   None    Shift=    0.000
 RMSDP=8.60D-06 MaxDP=1.55D-04 DE=-3.63D-05 OVMax= 1.32D-04

 Cycle   7  Pass 1  IDiag  1:
 E= -230.020252610935     Delta-E=       -0.000000002266 Rises=F Damp=F
 DIIS: error= 2.34D-05 at cycle   2 NSaved=   2.
 NSaved= 2 IEnMin= 2 EnMin= -230.020252610935     IErMin= 1 ErrMin= 1.65D-05
 ErrMax= 2.34D-05  0.00D+00 EMaxC= 1.00D-01 BMatC= 2.73D-08 BMatP= 2.56D-08
 IDIUse=1 WtCom= 1.00D+00 WtEn= 0.00D+00
 Coeff-Com:  0.510D+00 0.490D+00
 Coeff:      0.510D+00 0.490D+00
 Gap=     0.242 Goal=   None    Shift=    0.000
 RMSDP=2.48D-06 MaxDP=4.14D-05 DE=-2.27D-09 OVMax= 9.13D-05

 Cycle   8  Pass 1  IDiag  1:
 E= -230.020252634608     Delta-E=       -0.000000023672 Rises=F Damp=F
 DIIS: error= 8.95D-06 at cycle   3 NSaved=   3.
 NSaved= 3 IEnMin= 3 EnMin= -230.020252634608     IErMin= 3 ErrMin= 8.95D-06
 ErrMax= 8.95D-06  0.00D+00 EMaxC= 1.00D-01 BMatC= 4.00D-09 BMatP= 2.56D-08
 IDIUse=1 WtCom= 1.00D+00 WtEn= 0.00D+00
 Coeff-Com:  0.321D-01 0.272D+00 0.696D+00
 Coeff:      0.321D-01 0.272D+00 0.696D+00
 Gap=     0.242 Goal=   None    Shift=    0.000
 RMSDP=9.44D-07 MaxDP=1.41D-05 DE=-2.37D-08 OVMax= 3.26D-05

 Cycle   9  Pass 1  IDiag  1:
 E= -230.020252638075     Delta-E=       -0.000000003468 Rises=F Damp=F
 DIIS: error= 4.73D-06 at cycle   4 NSaved=   4.
 NSaved= 4 IEnMin= 4 EnMin= -230.020252638075     IErMin= 4 ErrMin= 4.73D-06
 ErrMax= 4.73D-06  0.00D+00 EMaxC= 1.00D-01 BMatC= 1.03D-09 BMatP= 4.00D-09
 IDIUse=1 WtCom= 1.00D+00 WtEn= 0.00D+00
 Coeff-Com: -0.109D-01 0.153D+00 0.467D+00 0.391D+00
 Coeff:     -0.109D-01 0.153D+00 0.467D+00 0.391D+00
 Gap=     0.242 Goal=   None    Shift=    0.000
 RMSDP=2.81D-07 MaxDP=7.89D-06 DE=-3.47D-09 OVMax= 1.01D-05

 Cycle  10  Pass 1  IDiag  1:
 E= -230.020252638875     Delta-E=       -0.000000000800 Rises=F Damp=F
 DIIS: error= 3.43D-07 at cycle   5 NSaved=   5.
 NSaved= 5 IEnMin= 5 EnMin= -230.020252638875     IErMin= 5 ErrMin= 3.43D-07
 ErrMax= 3.43D-07  0.00D+00 EMaxC= 1.00D-01 BMatC= 9.48D-12 BMatP= 1.03D-09
 IDIUse=1 WtCom= 1.00D+00 WtEn= 0.00D+00
 Coeff-Com: -0.693D-02 0.382D-01 0.133D+00 0.146D+00 0.689D+00
 Coeff:     -0.693D-02 0.382D-01 0.133D+00 0.146D+00 0.689D+00
 Gap=     0.242 Goal=   None    Shift=    0.000
 RMSDP=3.21D-08 MaxDP=5.57D-07 DE=-8.00D-10 OVMax= 5.51D-07

 Cycle  11  Pass 1  IDiag  1:
 E= -230.020252638880     Delta-E=       -0.000000000005 Rises=F Damp=F
 DIIS: error= 5.92D-08 at cycle   6 NSaved=   6.
 NSaved= 6 IEnMin= 6 EnMin= -230.020252638880     IErMin= 6 ErrMin= 5.92D-08
 ErrMax= 5.92D-08  0.00D+00 EMaxC= 1.00D-01 BMatC= 3.03D-13 BMatP= 9.48D-12
 IDIUse=1 WtCom= 1.00D+00 WtEn= 0.00D+00
 Coeff-Com: -0.178D-02 0.747D-02 0.289D-01 0.393D-01 0.203D+00 0.723D+00
 Coeff:     -0.178D-02 0.747D-02 0.289D-01 0.393D-01 0.203D+00 0.723D+00
 Gap=     0.242 Goal=   None    Shift=    0.000
 RMSDP=9.37D-09 MaxDP=1.18D-07 DE=-5.17D-12 OVMax= 2.33D-07

 SCF Done:  E(RB3LYP) =  -230.020252639     A.U. after   11 cycles
            NFock= 11  Conv=0.94D-08     -V/T= 2.0092
 KE= 2.279199833955D+02 PE=-8.575392992662D+02 EE= 2.386436783460D+02
 Leave Link  502 at Tue Feb  7 16:42:04 2017, MaxMem=  1048576000 cpu:        12.0
 (Enter /mnt/data/applications/G09/g09/l701.exe)
 Compute integral first derivatives.
 ... and contract with generalized density number  0.
 Leave Link  701 at Tue Feb  7 16:42:04 2017, MaxMem=  1048576000 cpu:         1.2
 (Enter /mnt/data/applications/G09/g09/l702.exe)
 L702 exits ... SP integral derivatives will be done elsewhere.
 Leave Link  702 at Tue Feb  7 16:42:04 2017, MaxMem=  1048576000 cpu:         0.2
 (Enter /mnt/data/applications/G09/g09/l703.exe)
 Compute integral first derivatives, UseDBF=F ICtDFT=           0.
 Integral derivatives from FoFJK, PRISM(SPDF).
 Calling FoFJK, ICntrl=      2127 FMM=F ISym2X=0 I1Cent= 0 IOpClX= 0 NMat=1 NMatS=1 NMatT=0.
 FoFJK:  IHMeth= 1 ICntrl=    2127 DoSepK=F KAlg= 0 I1Cent=   0 FoldK=F
 IRaf=         0 NMat=   1 IRICut=       1 DoRegI=T DoRafI=F ISym2E= 0.
 FoFCou: FMM=F IPFlag=           0 FMFlag=      100000 FMFlg1=         800
         NFxFlg=           0 DoJE=F BraDBF=F KetDBF=F FulRan=T
         wScrn=  0.000000 ICntrl=    2127 IOpCl=  0 I1Cent=           0 NGrid=           0
         NMat0=    1 NMatS0=      1 NMatT0=    0 NMatD0=    1 NMtDS0=    0 NMtDT0=    0
 Symmetry not used in FoFCou.
 Leave Link  703 at Tue Feb  7 16:42:05 2017, MaxMem=  1048576000 cpu:         5.3
 (Enter /mnt/data/applications/G09/g09/l716.exe)
 Dipole        = 2.48978796D-01-7.69989178D-02 1.09923181D-05
 Cartesian Forces:  Max     0.007746707 RMS     0.002842932
 Leave Link  716 at Tue Feb  7 16:42:05 2017, MaxMem=  1048576000 cpu:         0.2
 (Enter /mnt/data/applications/G09/g09/l120.exe)
 SvSCFP is copying densities from files   528 and   530 to   603.
 ONIOM: saving gridpoint  2
 ONIOM: restoring gridpoint  1
 ONIOM: restoring gridpoint  1 on chk file.
 ONIOM: generating point  1 -- low level on model system.
 Leave Link  120 at Tue Feb  7 16:42:05 2017, MaxMem=  1048576000 cpu:         0.2
 (Enter /mnt/data/applications/G09/g09/l301.exe)
 Standard basis: STO-3G (5D, 7F)
 Ernie: Thresh=  0.10000D-02 Tol=  0.10000D-05 Strict=F.
    29 basis functions,    87 primitive gaussians,    29 cartesian basis functions
    18 alpha electrons       18 beta electrons
       nuclear repulsion energy       160.9553848858 Hartrees.
 IExCor=    0 DFT=F Ex=HF Corr=None ExCW=0 ScaHFX=  1.000000
 ScaDFX=  1.000000  1.000000  1.000000  1.000000 ScalE2=  1.000000  1.000000
 IRadAn=      0 IRanWt=     -1 IRanGd=            0 ICorTp=0 IEmpDi=  4
 NAtoms=    9 NActive=    9 NUniq=    9 SFac= 1.00D+00 NAtFMM=   60 NAOKFM=F Big=F
 Integral buffers will be    131072 words long.
 Raffenetti 1 integral format.
 Two-electron integral symmetry is turned off.
 Leave Link  301 at Tue Feb  7 16:42:05 2017, MaxMem=  1048576000 cpu:         0.5
 (Enter /mnt/data/applications/G09/g09/l402.exe)
 External calculation of energy and first derivatives.
 Running external command "./sictwo_files/sictwo_g09d01 M"
         input file       "/scratch/Gau-9706.EIn"
         output file      "/scratch/Gau-9706.EOu"
         message file     "/scratch/Gau-9706.EMs"
         fchk file        "/scratch/Gau-9706.EFC"
         mat. el file     "/scratch/Gau-9706.EUF"

---------------------------- SICTWO Version 1.0 STARTED -----------------------------

MM calculations started
MM calculations finished ....
Information recovery

---------------------------- SICTWO Version 1.0 FINISHED -----------------------------

 Recovered energy= 0.123112051654E-01 dipole=      0.707387756714     -0.218747270708      0.000000000000
 Energy=    1.231120517E-02 NIter=   0.
 Dipole moment=       0.707388      -0.218747       0.000000
 Leave Link  402 at Tue Feb  7 16:42:07 2017, MaxMem=  1048576000 cpu:        14.5
 (Enter /mnt/data/applications/G09/g09/l716.exe)
 Dipole        = 7.07387757D-01-2.18747271D-01 0.00000000D+00
 Cartesian Forces:  Max     0.025213400 RMS     0.011166640
 Leave Link  716 at Tue Feb  7 16:42:07 2017, MaxMem=  1048576000 cpu:         0.2
 (Enter /mnt/data/applications/G09/g09/l120.exe)
 SvSCFP did not find density file   528.
 ONIOM: saving gridpoint  1
 ONIOM: restoring gridpoint  3
 ONIOM: calculating energy.
 ONIOM: gridpoint  1 method:  low   system:  model energy:     0.012311205165
 ONIOM: gridpoint  2 method:  high  system:  model energy:  -230.020252638880
 ONIOM: gridpoint  3 method:  low   system:  real  energy:     0.012311205165
 ONIOM: extrapolated energy =    -230.020252638880
 ONIOM: calculating first derivatives.
 ONIOM: calculating electric field derivatives.
 ONIOM: Integrating ONIOM file  4 number   619
 ONIOM: Dipole        = 2.48978796D-01-7.69989178D-02 1.09923181D-05
 ONIOM: Dipole moment (Debye):
    X=     0.6328    Y=    -0.1957    Z=     0.0000  Tot=     0.6624
 ONIOM: Integrating ONIOM file  5 number   695
 Leave Link  120 at Tue Feb  7 16:42:07 2017, MaxMem=  1048576000 cpu:         0.0
 (Enter /mnt/data/applications/G09/g09/l716.exe)
 Dipole        = 2.48978796D-01-7.69989178D-02 1.09923181D-05
 -------------------------------------------------------------------
 Center     Atomic                   Forces (Hartrees/Bohr)
 Number     Number              X              Y              Z
 -------------------------------------------------------------------
      1        6           0.001187468   -0.005793987    0.000002440
      2        6          -0.003558785   -0.006962673   -0.000003983
      3        6           0.000986380    0.007746707    0.000004875
      4        6           0.004234893    0.004115665   -0.000010365
      5        1          -0.002573187    0.000594966   -0.000001506
      6        1          -0.000635348   -0.000173681   -0.000000077
      7        1          -0.000425760    0.000504438    0.000001671
      8        1          -0.002451142    0.000963455    0.000000466
      9        8           0.003235481   -0.000994891    0.000006478
 -------------------------------------------------------------------
 Cartesian Forces:  Max     0.007746707 RMS     0.002842932
 Leave Link  716 at Tue Feb  7 16:42:08 2017, MaxMem=  1048576000 cpu:         0.2
 (Enter /mnt/data/applications/G09/g09/l103.exe)

 GradGradGradGradGradGradGradGradGradGradGradGradGradGradGradGradGradGrad
 Berny optimization.
 Using GEDIIS/GDIIS optimizer.
 FormGI is forming the generalized inverse of G from B-inverse, IUseBI=4.
 Internal  Forces:  Max     0.010608049 RMS     0.002316840
 Search for a local minimum.
 Step number   2 out of a maximum of   48
 All quantities printed in internal units (Hartrees-Bohrs-Radians)
 RMS Force = .23168D-02 SwitMx=.10000D-02 MixMth= 1
 Mixed Optimization -- RFO/linear search
 Update second derivatives using D2CorX and points    1    2
 DE= -6.94D-03 DEPred=-7.21D-03 R= 9.62D-01
 TightC=F SS=  1.41D+00  RLast= 2.10D-01 DXNew= 5.0454D-01 6.2905D-01
 Trust test= 9.62D-01 RLast= 2.10D-01 DXMaxT set to 5.05D-01
 ITU=  1  0
 Use linear search instead of GDIIS.
     Eigenvalues ---    0.01770   0.01825   0.01880   0.01939   0.01999
     Eigenvalues ---    0.02012   0.14814   0.16000   0.16000   0.16007
     Eigenvalues ---    0.22000   0.24948   0.34899   0.35026   0.35383
     Eigenvalues ---    0.35419   0.37624   0.39964   0.43618   0.46598
     Eigenvalues ---    0.50418
 RFO step:  Lambda=-6.51147895D-04 EMin= 1.77021922D-02
 Quartic linear search produced a step of -0.02470.
 Iteration  1 RMS(Cart)=  0.01057267 RMS(Int)=  0.00010907
 Iteration  2 RMS(Cart)=  0.00012189 RMS(Int)=  0.00000547
 Iteration  3 RMS(Cart)=  0.00000001 RMS(Int)=  0.00000547
 ITry= 1 IFail=0 DXMaxC= 2.90D-02 DCOld= 1.00D+10 DXMaxT= 5.05D-01 DXLimC= 3.00D+00 Rises=F
 Variable       Old X    -DE/DX   Delta X   Delta X   Delta X     New X
                                 (Linear)    (Quad)   (Total)
    R1        2.57439  -0.00112   0.00184  -0.00771  -0.00588   2.56851
    R2        2.03653   0.00134   0.00054   0.00213   0.00267   2.03920
    R3        2.57459   0.00124   0.00137  -0.00179  -0.00041   2.57418
    R4        2.68733   0.01061   0.00060   0.02433   0.02492   2.71225
    R5        2.04378  -0.00023   0.00015  -0.00108  -0.00093   2.04285
    R6        2.57443  -0.00112   0.00184  -0.00772  -0.00588   2.56855
    R7        2.04378  -0.00023   0.00015  -0.00108  -0.00092   2.04286
    R8        2.03652   0.00134   0.00054   0.00214   0.00267   2.03920
    R9        2.57459   0.00123   0.00137  -0.00181  -0.00043   2.57416
    A1        2.31022   0.00381  -0.00098   0.02364   0.02266   2.33288
    A2        1.93678  -0.00299  -0.00110  -0.00963  -0.01072   1.92605
    A3        2.03619  -0.00082   0.00208  -0.01401  -0.01193   2.02426
    A4        1.85097   0.00015   0.00049   0.00084   0.00132   1.85229
    A5        2.20964  -0.00071  -0.00007  -0.00479  -0.00486   2.20478
    A6        2.22258   0.00055  -0.00042   0.00395   0.00354   2.22612
    A7        1.85100   0.00016   0.00049   0.00088   0.00136   1.85236
    A8        2.22260   0.00055  -0.00042   0.00396   0.00355   2.22614
    A9        2.20959  -0.00072  -0.00007  -0.00484  -0.00490   2.20468
   A10        2.31031   0.00381  -0.00097   0.02359   0.02262   2.33292
   A11        1.93674  -0.00300  -0.00110  -0.00965  -0.01074   1.92599
   A12        2.03614  -0.00081   0.00207  -0.01394  -0.01187   2.02427
   A13        1.84930   0.00567   0.00122   0.01755   0.01879   1.86809
    D1       -3.14155   0.00000   0.00000   0.00001   0.00001  -3.14154
    D2        0.00007   0.00000   0.00000  -0.00005  -0.00005   0.00002
    D3       -0.00002   0.00000   0.00000   0.00005   0.00005   0.00003
    D4       -3.14159   0.00000   0.00000  -0.00001  -0.00001   3.14158
    D5       -0.00002   0.00000   0.00000   0.00006   0.00006   0.00004
    D6        3.14152   0.00000   0.00000   0.00009   0.00009  -3.14158
    D7        0.00006   0.00000   0.00000  -0.00014  -0.00014  -0.00008
    D8       -3.14155   0.00000   0.00000  -0.00007  -0.00007   3.14156
    D9       -3.14156   0.00000   0.00000  -0.00007  -0.00008   3.14155
   D10        0.00002   0.00000   0.00000  -0.00001  -0.00001   0.00001
   D11       -3.14155   0.00000   0.00000   0.00000   0.00000  -3.14155
   D12       -0.00007   0.00000   0.00000   0.00018   0.00018   0.00011
   D13        0.00005   0.00000   0.00000  -0.00006  -0.00006  -0.00001
   D14        3.14153   0.00000   0.00000   0.00012   0.00012  -3.14154
   D15        0.00006   0.00000   0.00000  -0.00015  -0.00015  -0.00009
   D16        3.14156   0.00000   0.00000   0.00000  -0.00001   3.14155
         Item               Value     Threshold  Converged?
 Maximum Force            0.010608     0.000450     NO 
 RMS     Force            0.002317     0.000300     NO 
 Maximum Displacement     0.029035     0.001800     NO 
 RMS     Displacement     0.010567     0.001200     NO 
 Predicted change in Energy=-3.292210D-04
 Lowest energy point so far.  Saving SCF results.
 GradGradGradGradGradGradGradGradGradGradGradGradGradGradGradGradGradGrad

 Leave Link  103 at Tue Feb  7 16:42:08 2017, MaxMem=  1048576000 cpu:         0.0
 (Enter /mnt/data/applications/G09/g09/l202.exe)
                          Input orientation:                          
 ---------------------------------------------------------------------
 Center     Atomic      Atomic             Coordinates (Angstroms)
 Number     Number       Type             X           Y           Z
 ---------------------------------------------------------------------
      1          6    10061000       -1.891431    0.205238    0.483747
      2          6    10061000       -0.532464    0.180184    0.483725
      3          6    10061000       -0.108422    1.551373    0.483698
      4          6    10061000       -1.244252    2.297942    0.483598
      5          1    10011000       -2.650730   -0.561516    0.483812
      6          1    10011000        0.091733   -0.702429    0.483760
      7          1    10011000        0.905047    1.927562    0.483702
      8          1    10011000       -1.438126    3.359480    0.483511
      9          8    10081000       -2.341622    1.490893    0.483699
 ---------------------------------------------------------------------
                    Distance matrix (angstroms):
                    1          2          3          4          5
     1  C    0.000000
     2  C    1.359198   0.000000
     3  C    2.234099   1.435259   0.000000
     4  C    2.190491   2.234176   1.359219   0.000000
     5  H    1.079096   2.244365   3.305697   3.186642   0.000000
     6  H    2.181008   1.081031   2.262672   3.284370   2.746081
     7  H    3.284309   2.262689   1.081035   2.180979   4.340399
     8  H    3.186649   3.305774   2.244407   1.079096   4.104220
     9  O    1.362197   2.234057   2.234019   1.362185   2.075556
                    6          7          8          9
     6  H    0.000000
     7  H    2.752877   0.000000
     8  H    4.340458   2.746060   0.000000
     9  O    3.275954   3.275903   2.075553   0.000000
 Symmetry turned off by external request.
 Stoichiometry    C4H4O
 Framework group  C1[X(C4H4O)]
 Deg. of freedom    21
 Full point group                 C1      NOp   1
 Rotational constants (GHZ):      9.4540498      9.2910309      4.6859158
 Leave Link  202 at Tue Feb  7 16:42:08 2017, MaxMem=  1048576000 cpu:         0.0
 (Enter /mnt/data/applications/G09/g09/l120.exe)
 SvSCFP did not find density file   528.
 ONIOM: saving gridpoint 17
 ONIOM: restoring gridpoint  3
 ONIOM: restoring gridpoint  3 on chk file.
 ONIOM: generating point  3 -- low level on real system.
 Leave Link  120 at Tue Feb  7 16:42:08 2017, MaxMem=  1048576000 cpu:         0.0
 (Enter /mnt/data/applications/G09/g09/l301.exe)
 Standard basis: STO-3G (5D, 7F)
 Ernie: Thresh=  0.10000D-02 Tol=  0.10000D-05 Strict=F.
    29 basis functions,    87 primitive gaussians,    29 cartesian basis functions
    18 alpha electrons       18 beta electrons
       nuclear repulsion energy       160.8561897755 Hartrees.
 IExCor=    0 DFT=F Ex=HF Corr=None ExCW=0 ScaHFX=  1.000000
 ScaDFX=  1.000000  1.000000  1.000000  1.000000 ScalE2=  1.000000  1.000000
 IRadAn=      0 IRanWt=     -1 IRanGd=            0 ICorTp=0 IEmpDi=  4
 NAtoms=    9 NActive=    9 NUniq=    9 SFac= 1.00D+00 NAtFMM=   60 NAOKFM=F Big=F
 Integral buffers will be    131072 words long.
 Raffenetti 1 integral format.
 Two-electron integral symmetry is turned off.
 Leave Link  301 at Tue Feb  7 16:42:08 2017, MaxMem=  1048576000 cpu:         0.4
 (Enter /mnt/data/applications/G09/g09/l402.exe)
 External calculation of energy and first derivatives.
 Running external command "./sictwo_files/sictwo_g09d01 R"
         input file       "/scratch/Gau-9706.EIn"
         output file      "/scratch/Gau-9706.EOu"
         message file     "/scratch/Gau-9706.EMs"
         fchk file        "/scratch/Gau-9706.EFC"
         mat. el file     "/scratch/Gau-9706.EUF"

---------------------------- SICTWO Version 1.0 STARTED -----------------------------

MM calculations started
MM calculations finished ....
Information recovery

---------------------------- SICTWO Version 1.0 FINISHED -----------------------------

 Recovered energy= 0.136954069940E-01 dipole=      0.688109669907     -0.212845815563      0.000000000000
 Energy=    1.369540699E-02 NIter=   0.
 Dipole moment=       0.688110      -0.212846       0.000000
 Leave Link  402 at Tue Feb  7 16:42:10 2017, MaxMem=  1048576000 cpu:        16.9
 (Enter /mnt/data/applications/G09/g09/l716.exe)
 Dipole        = 6.88109670D-01-2.12845816D-01 0.00000000D+00
 Cartesian Forces:  Max     0.029198315 RMS     0.012209556
 Leave Link  716 at Tue Feb  7 16:42:10 2017, MaxMem=  1048576000 cpu:         0.2
 (Enter /mnt/data/applications/G09/g09/l120.exe)
 SvSCFP did not find density file   528.
 ONIOM: saving gridpoint  3
 ONIOM: restoring gridpoint  2
 ONIOM: restoring gridpoint  2 on chk file.
 ONIOM: generating point  2 -- high level on model system.
 Leave Link  120 at Tue Feb  7 16:42:11 2017, MaxMem=  1048576000 cpu:         0.0
 (Enter /mnt/data/applications/G09/g09/l301.exe)
 Standard basis: 6-31G(d) (6D, 7F)
 Ernie: Thresh=  0.10000D-02 Tol=  0.10000D-05 Strict=F.
    83 basis functions,   156 primitive gaussians,    83 cartesian basis functions
    18 alpha electrons       18 beta electrons
       nuclear repulsion energy       160.8561897755 Hartrees.
 IExCor=  402 DFT=T Ex+Corr=B3LYP ExCW=0 ScaHFX=  0.200000
 ScaDFX=  0.800000  0.720000  1.000000  0.810000 ScalE2=  1.000000  1.000000
 IRadAn=      0 IRanWt=     -1 IRanGd=            0 ICorTp=0 IEmpDi=  4
 NAtoms=    9 NActive=    9 NUniq=    9 SFac= 1.00D+00 NAtFMM=   60 NAOKFM=F Big=F
 Integral buffers will be    131072 words long.
 Raffenetti 2 integral format.
 Two-electron integral symmetry is turned off.
 Leave Link  301 at Tue Feb  7 16:42:11 2017, MaxMem=  1048576000 cpu:         0.4
 (Enter /mnt/data/applications/G09/g09/l302.exe)
 NPDir=0 NMtPBC=     1 NCelOv=     1 NCel=       1 NClECP=     1 NCelD=      1
         NCelK=      1 NCelE2=     1 NClLst=     1 CellRange=     0.0.
 One-electron integrals computed using PRISM.
 NBasis=    83 RedAO= T EigKep=  1.15D-03  NBF=    83
 NBsUse=    83 1.00D-06 EigRej= -1.00D+00 NBFU=    83
 Precomputing XC quadrature grid using
 IXCGrd= 4 IRadAn=           0 IRanWt=          -1 IRanGd=           0 AccXCQ= 0.00D+00.
 Generated NRdTot=       0 NPtTot=           0 NUsed=           0 NTot=          32
 NSgBfM=    83    83    83    83    83 MxSgAt=     9 MxSgA2=     9.
 Leave Link  302 at Tue Feb  7 16:42:11 2017, MaxMem=  1048576000 cpu:         1.3
 (Enter /mnt/data/applications/G09/g09/l303.exe)
 DipDrv:  MaxL=1.
 Leave Link  303 at Tue Feb  7 16:42:11 2017, MaxMem=  1048576000 cpu:         0.2
 (Enter /mnt/data/applications/G09/g09/l401.exe)
 Initial guess from the checkpoint file:  "F_1.chk"
 B after Tr=     0.009593   -0.002977   -0.000019
         Rot=    1.000000    0.000001   -0.000008   -0.000001 Ang=   0.00 deg.
 Guess basis will be translated and rotated to current coordinates.
 JPrj=2 DoOrth=T DoCkMO=T.
 Generating alternative initial guess.
 ExpMin= 1.61D-01 ExpMax= 5.48D+03 ExpMxC= 8.25D+02 IAcc=1 IRadAn=         1 AccDes= 0.00D+00
 Harris functional with IExCor=  402 and IRadAn=       1 diagonalized for initial guess.
 HarFok:  IExCor=  402 AccDes= 0.00D+00 IRadAn=         1 IDoV= 1 UseB2=F ITyADJ=14
 ICtDFT=  3500011 ScaDFX=  1.000000  1.000000  1.000000  1.000000
 FoFCou: FMM=F IPFlag=           0 FMFlag=      100000 FMFlg1=           0
         NFxFlg=           0 DoJE=T BraDBF=F KetDBF=T FulRan=T
         wScrn=  0.000000 ICntrl=     500 IOpCl=  0 I1Cent=   200000004 NGrid=           0
         NMat0=    1 NMatS0=      1 NMatT0=    0 NMatD0=    1 NMtDS0=    0 NMtDT0=    0
 Symmetry not used in FoFCou.
 Harris En= -230.029589249762    
 Leave Link  401 at Tue Feb  7 16:42:11 2017, MaxMem=  1048576000 cpu:         2.3
 (Enter /mnt/data/applications/G09/g09/l502.exe)
 Closed shell SCF:
 Using DIIS extrapolation, IDIIS=  1040.
 Two-electron integral symmetry not used.
 Keep R1 ints in memory in canonical form, NReq=7014116.
 IVT=       33873 IEndB=       33873 NGot=  1048576000 MDV=  1042464287
 LenX=  1042464287 LenY=  1042456957
 Requested convergence on RMS density matrix=1.00D-08 within 100 cycles.
 Requested convergence on MAX density matrix=1.00D-06.
 Requested convergence on             energy=1.00D-06.
 No special actions if energy rises.
 FoFCou: FMM=F IPFlag=           0 FMFlag=           0 FMFlg1=           0
         NFxFlg=           0 DoJE=F BraDBF=F KetDBF=F FulRan=T
         wScrn=  0.000000 ICntrl=     600 IOpCl=  0 I1Cent=           0 NGrid=           0
[...]
 Gap=     0.244 Goal=   None    Shift=    0.000
 RMSDP=6.16D-08 MaxDP=1.04D-06 DE=-1.18D-10 OVMax= 1.95D-06

 Cycle   7  Pass 1  IDiag  1:
 E= -230.020576347797     Delta-E=       -0.000000000026 Rises=F Damp=F
 DIIS: error= 9.94D-08 at cycle   7 NSaved=   7.
 NSaved= 7 IEnMin= 7 EnMin= -230.020576347797     IErMin= 7 ErrMin= 9.94D-08
 ErrMax= 9.94D-08  0.00D+00 EMaxC= 1.00D-01 BMatC= 4.40D-13 BMatP= 3.00D-11
 IDIUse=1 WtCom= 1.00D+00 WtEn= 0.00D+00
 Coeff-Com: -0.226D-04-0.141D-02-0.115D-02 0.366D-02 0.376D-01 0.127D+00
 Coeff-Com:  0.834D+00
 Coeff:     -0.226D-04-0.141D-02-0.115D-02 0.366D-02 0.376D-01 0.127D+00
 Coeff:      0.834D+00
 Gap=     0.244 Goal=   None    Shift=    0.000
 RMSDP=1.13D-08 MaxDP=1.08D-07 DE=-2.58D-11 OVMax= 3.69D-07

 Cycle   8  Pass 1  IDiag  1:
 E= -230.020576347801     Delta-E=       -0.000000000004 Rises=F Damp=F
 DIIS: error= 8.76D-09 at cycle   8 NSaved=   8.
 NSaved= 8 IEnMin= 8 EnMin= -230.020576347801     IErMin= 8 ErrMin= 8.76D-09
 ErrMax= 8.76D-09  0.00D+00 EMaxC= 1.00D-01 BMatC= 6.35D-15 BMatP= 4.40D-13
 IDIUse=1 WtCom= 1.00D+00 WtEn= 0.00D+00
 Coeff-Com:  0.372D-04-0.337D-03-0.618D-03-0.159D-02-0.296D-02-0.248D-02
 Coeff-Com:  0.775D-01 0.930D+00
 Coeff:      0.372D-04-0.337D-03-0.618D-03-0.159D-02-0.296D-02-0.248D-02
 Coeff:      0.775D-01 0.930D+00
 Gap=     0.244 Goal=   None    Shift=    0.000
 RMSDP=1.24D-09 MaxDP=1.56D-08 DE=-3.87D-12 OVMax= 3.98D-08

 SCF Done:  E(RB3LYP) =  -230.020576348     A.U. after    8 cycles
            NFock=  8  Conv=0.12D-08     -V/T= 2.0094
 KE= 2.278876872842D+02 PE=-8.570181191854D+02 EE= 2.384102493577D+02
 Leave Link  502 at Tue Feb  7 16:42:31 2017, MaxMem=  1048576000 cpu:        11.6
 (Enter /mnt/data/applications/G09/g09/l701.exe)
 Compute integral first derivatives.
 ... and contract with generalized density number  0.
 Leave Link  701 at Tue Feb  7 16:42:32 2017, MaxMem=  1048576000 cpu:         1.2
 (Enter /mnt/data/applications/G09/g09/l702.exe)
 L702 exits ... SP integral derivatives will be done elsewhere.
 Leave Link  702 at Tue Feb  7 16:42:32 2017, MaxMem=  1048576000 cpu:         0.2
 (Enter /mnt/data/applications/G09/g09/l703.exe)
 Compute integral first derivatives, UseDBF=F ICtDFT=           0.
 Integral derivatives from FoFJK, PRISM(SPDF).
 Calling FoFJK, ICntrl=      2127 FMM=F ISym2X=0 I1Cent= 0 IOpClX= 0 NMat=1 NMatS=1 NMatT=0.
 FoFJK:  IHMeth= 1 ICntrl=    2127 DoSepK=F KAlg= 0 I1Cent=   0 FoldK=F
 IRaf=         0 NMat=   1 IRICut=       1 DoRegI=T DoRafI=F ISym2E= 0.
 FoFCou: FMM=F IPFlag=           0 FMFlag=      100000 FMFlg1=         800
         NFxFlg=           0 DoJE=F BraDBF=F KetDBF=F FulRan=T
         wScrn=  0.000000 ICntrl=    2127 IOpCl=  0 I1Cent=           0 NGrid=           0
         NMat0=    1 NMatS0=      1 NMatT0=    0 NMatD0=    1 NMtDS0=    0 NMtDT0=    0
 Symmetry not used in FoFCou.
 Leave Link  703 at Tue Feb  7 16:42:32 2017, MaxMem=  1048576000 cpu:         4.8
 (Enter /mnt/data/applications/G09/g09/l716.exe)
 Dipole        = 2.37283084D-01-7.33807306D-02-2.79141106D-05
 Cartesian Forces:  Max     0.000155462 RMS     0.000063110
 Leave Link  716 at Tue Feb  7 16:42:33 2017, MaxMem=  1048576000 cpu:         0.2
 (Enter /mnt/data/applications/G09/g09/l120.exe)
 SvSCFP is copying densities from files   528 and   530 to   603.
 ONIOM: saving gridpoint  2
 ONIOM: restoring gridpoint  1
 ONIOM: restoring gridpoint  1 on chk file.
 ONIOM: generating point  1 -- low level on model system.
 Leave Link  120 at Tue Feb  7 16:42:33 2017, MaxMem=  1048576000 cpu:         0.2
 (Enter /mnt/data/applications/G09/g09/l301.exe)
 Standard basis: STO-3G (5D, 7F)
 Ernie: Thresh=  0.10000D-02 Tol=  0.10000D-05 Strict=F.
    29 basis functions,    87 primitive gaussians,    29 cartesian basis functions
    18 alpha electrons       18 beta electrons
       nuclear repulsion energy       160.6996061956 Hartrees.
 IExCor=    0 DFT=F Ex=HF Corr=None ExCW=0 ScaHFX=  1.000000
 ScaDFX=  1.000000  1.000000  1.000000  1.000000 ScalE2=  1.000000  1.000000
 IRadAn=      0 IRanWt=     -1 IRanGd=            0 ICorTp=0 IEmpDi=  4
 NAtoms=    9 NActive=    9 NUniq=    9 SFac= 1.00D+00 NAtFMM=   60 NAOKFM=F Big=F
 Integral buffers will be    131072 words long.
 Raffenetti 1 integral format.
 Two-electron integral symmetry is turned off.
 Leave Link  301 at Tue Feb  7 16:42:33 2017, MaxMem=  1048576000 cpu:         0.5
 (Enter /mnt/data/applications/G09/g09/l402.exe)
 External calculation of energy and first derivatives.
 Running external command "./sictwo_files/sictwo_g09d01 M"
         input file       "/scratch/Gau-9706.EIn"
         output file      "/scratch/Gau-9706.EOu"
         message file     "/scratch/Gau-9706.EMs"
         fchk file        "/scratch/Gau-9706.EFC"
         mat. el file     "/scratch/Gau-9706.EUF"

---------------------------- SICTWO Version 1.0 STARTED -----------------------------

MM calculations started
MM calculations finished ....
Information recovery

---------------------------- SICTWO Version 1.0 FINISHED -----------------------------

 Recovered energy= 0.140286289631E-01 dipole=      0.689289960936     -0.213239245906      0.000000000000
 Energy=    1.402862896E-02 NIter=   0.
 Dipole moment=       0.689290      -0.213239       0.000000
 Leave Link  402 at Tue Feb  7 16:42:35 2017, MaxMem=  1048576000 cpu:        14.5
 (Enter /mnt/data/applications/G09/g09/l716.exe)
 Dipole        = 6.89289961D-01-2.13239246D-01 0.00000000D+00
 Cartesian Forces:  Max     0.029269827 RMS     0.012679801
 Leave Link  716 at Tue Feb  7 16:42:35 2017, MaxMem=  1048576000 cpu:         0.2
 (Enter /mnt/data/applications/G09/g09/l120.exe)
 SvSCFP did not find density file   528.
 ONIOM: saving gridpoint  1
 ONIOM: restoring gridpoint  3
 ONIOM: calculating energy.
 ONIOM: gridpoint  1 method:  low   system:  model energy:     0.014028628963
 ONIOM: gridpoint  2 method:  high  system:  model energy:  -230.020576347801
 ONIOM: gridpoint  3 method:  low   system:  real  energy:     0.014028628963
 ONIOM: extrapolated energy =    -230.020576347801
 ONIOM: calculating first derivatives.
 ONIOM: calculating electric field derivatives.
 ONIOM: Integrating ONIOM file  4 number   619
 ONIOM: Dipole        = 2.37283084D-01-7.33807306D-02-2.79141106D-05
 ONIOM: Dipole moment (Debye):
    X=     0.6031    Y=    -0.1865    Z=    -0.0001  Tot=     0.6313
 ONIOM: Integrating ONIOM file  5 number   695
 Leave Link  120 at Tue Feb  7 16:42:35 2017, MaxMem=  1048576000 cpu:         0.0
 (Enter /mnt/data/applications/G09/g09/l716.exe)
 Dipole        = 2.37283084D-01-7.33807306D-02-2.79141106D-05
 -------------------------------------------------------------------
 Center     Atomic                   Forces (Hartrees/Bohr)
 Number     Number              X              Y              Z
 -------------------------------------------------------------------
      1        6           0.000107945   -0.000118749   -0.000002258
      2        6          -0.000129995    0.000042504    0.000018915
      3        6          -0.000130368    0.000037344   -0.000025550
      4        6           0.000155462    0.000036807    0.000028109
      5        1           0.000005629    0.000022291   -0.000000503
      6        1           0.000054365    0.000030652    0.000001814
      7        1           0.000028135   -0.000057267   -0.000004423
      8        1          -0.000006184   -0.000021129    0.000003010
      9        8          -0.000084990    0.000027547   -0.000019114
 -------------------------------------------------------------------
 Cartesian Forces:  Max     0.000155462 RMS     0.000063110
 Leave Link  716 at Tue Feb  7 16:42:35 2017, MaxMem=  1048576000 cpu:         0.2
 (Enter /mnt/data/applications/G09/g09/l103.exe)

 GradGradGradGradGradGradGradGradGradGradGradGradGradGradGradGradGradGrad
 Berny optimization.
 Using GEDIIS/GDIIS optimizer.
 FormGI is forming the generalized inverse of G from B-inverse, IUseBI=4.
 Internal  Forces:  Max     0.000091348 RMS     0.000039240
 Search for a local minimum.
 Step number   5 out of a maximum of   48
 All quantities printed in internal units (Hartrees-Bohrs-Radians)
 RMS Force = .39240D-04 SwitMx=.10000D-02 MixMth= 2
 Mixed Optimization -- En-DIIS/RFO-DIIS
 Swapping is turned off.
 Update second derivatives using D2CorX and points    1    2    3    4    5
 DE= -1.93D-06 DEPred=-1.59D-06 R= 1.21D+00
 TightC=F SS=  1.41D+00  RLast= 3.18D-03 DXNew= 8.4853D-01 9.5541D-03
 Trust test= 1.21D+00 RLast= 3.18D-03 DXMaxT set to 5.05D-01
 ITU=  1  1  1  1  0
     Eigenvalues ---    0.01771   0.01828   0.01901   0.01947   0.02003
     Eigenvalues ---    0.02015   0.11096   0.14403   0.16000   0.16000
     Eigenvalues ---    0.22000   0.29355   0.34899   0.35091   0.35419
     Eigenvalues ---    0.35475   0.37933   0.40048   0.46055   0.46605
     Eigenvalues ---    0.54190
 En-DIIS/RFO-DIIS IScMMF=        0 using points:     5    4    3
 RFO step:  Lambda=-1.32547937D-07.
 NNeg= 0 NP= 3 Switch=  2.50D-03 Rises=F DC=  2.72D-05 SmlDif=  1.00D-05
 RMS Error=  0.9751525242D-04 NUsed= 3 EDIIS=F
 DidBck=F Rises=F RFO-DIIS coefs:    1.33769   -0.31032   -0.02737
 Iteration  1 RMS(Cart)=  0.00043937 RMS(Int)=  0.00000020
 Iteration  2 RMS(Cart)=  0.00000018 RMS(Int)=  0.00000012
 ITry= 1 IFail=0 DXMaxC= 1.30D-03 DCOld= 1.00D+10 DXMaxT= 5.05D-01 DXLimC= 3.00D+00 Rises=F
 Variable       Old X    -DE/DX   Delta X   Delta X   Delta X     New X
                                 (Linear)    (Quad)   (Total)
    R1        2.57146  -0.00009  -0.00019  -0.00007  -0.00026   2.57119
    R2        2.03970  -0.00002  -0.00001  -0.00005  -0.00006   2.03964
    R3        2.57767   0.00008   0.00037  -0.00003   0.00034   2.57801
    R4        2.71334  -0.00006  -0.00022   0.00005  -0.00017   2.71317
    R5        2.04304   0.00001  -0.00002   0.00004   0.00002   2.04307
    R6        2.57151  -0.00009  -0.00019  -0.00007  -0.00026   2.57124
    R7        2.04305   0.00001  -0.00002   0.00004   0.00002   2.04308
    R8        2.03970  -0.00002  -0.00001  -0.00005  -0.00006   2.03964
    R9        2.57764   0.00008   0.00037  -0.00003   0.00033   2.57798
    A1        2.33578   0.00003   0.00017   0.00011   0.00028   2.33606
    A2        1.92921  -0.00003  -0.00011  -0.00002  -0.00013   1.92908
    A3        2.01820   0.00000  -0.00006  -0.00009  -0.00015   2.01805
    A4        1.85144   0.00004   0.00016   0.00000   0.00016   1.85159
    A5        2.20835   0.00004   0.00030   0.00023   0.00054   2.20889
    A6        2.22339  -0.00008  -0.00046  -0.00023  -0.00069   2.22270
    A7        1.85150   0.00004   0.00016   0.00000   0.00016   1.85165
    A8        2.22343  -0.00008  -0.00046  -0.00024  -0.00069   2.22274
    A9        2.20825   0.00004   0.00030   0.00024   0.00053   2.20879
   A10        2.33581   0.00003   0.00017   0.00011   0.00028   2.33608
   A11        1.92916  -0.00003  -0.00011  -0.00002  -0.00013   1.92903
   A12        2.01822   0.00000  -0.00006  -0.00009  -0.00015   2.01808
   A13        1.86347  -0.00002  -0.00010   0.00004  -0.00006   1.86342
    D1       -3.14151  -0.00001   0.00004  -0.00038  -0.00034   3.14134
    D2       -0.00002   0.00000  -0.00001   0.00011   0.00009   0.00007
    D3        0.00010  -0.00001   0.00005  -0.00048  -0.00043  -0.00033
    D4        3.14159   0.00000   0.00000   0.00001   0.00000   3.14159
    D5        0.00006   0.00000   0.00003  -0.00024  -0.00021  -0.00015
    D6       -3.14152   0.00000   0.00004  -0.00032  -0.00028   3.14138
    D7       -0.00023   0.00001  -0.00012   0.00102   0.00090   0.00068
    D8        3.14151   0.00000  -0.00004   0.00038   0.00033  -3.14134
    D9        3.14147   0.00001  -0.00006   0.00053   0.00047  -3.14125
   D10        0.00002   0.00000   0.00001  -0.00012  -0.00010  -0.00008
   D11       -3.14151   0.00000   0.00004  -0.00039  -0.00034   3.14134
   D12        0.00027  -0.00002   0.00014  -0.00121  -0.00107  -0.00080
   D13       -0.00006   0.00000  -0.00003   0.00025   0.00022   0.00017
   D14       -3.14146  -0.00001   0.00007  -0.00057  -0.00051   3.14122
   D15       -0.00021   0.00001  -0.00011   0.00093   0.00082   0.00061
   D16        3.14153   0.00000  -0.00003   0.00027   0.00024  -3.14142
         Item               Value     Threshold  Converged?
 Maximum Force            0.000091     0.000450     YES
 RMS     Force            0.000039     0.000300     YES
 Maximum Displacement     0.001303     0.001800     YES
 RMS     Displacement     0.000439     0.001200     YES
 Predicted change in Energy=-1.806137D-07
 Optimization completed.
    -- Stationary point found.
                           ----------------------------
                           !   Optimized Parameters   !
                           ! (Angstroms and Degrees)  !
 --------------------------                            --------------------------
 ! Name  Definition              Value          Derivative Info.                !
 --------------------------------------------------------------------------------
 ! R1    R(1,2)                  1.3608         -DE/DX =   -0.0001              !
 ! R2    R(1,5)                  1.0794         -DE/DX =    0.0                 !
 ! R3    R(1,9)                  1.364          -DE/DX =    0.0001              !
 ! R4    R(2,3)                  1.4358         -DE/DX =   -0.0001              !
 ! R5    R(2,6)                  1.0811         -DE/DX =    0.0                 !
 ! R6    R(3,4)                  1.3608         -DE/DX =   -0.0001              !
 ! R7    R(3,7)                  1.0811         -DE/DX =    0.0                 !
 ! R8    R(4,8)                  1.0794         -DE/DX =    0.0                 !
 ! R9    R(4,9)                  1.364          -DE/DX =    0.0001              !
 ! A1    A(2,1,5)              133.8302         -DE/DX =    0.0                 !
 ! A2    A(2,1,9)              110.5356         -DE/DX =    0.0                 !
 ! A3    A(5,1,9)              115.6342         -DE/DX =    0.0                 !
 ! A4    A(1,2,3)              106.0796         -DE/DX =    0.0                 !
 ! A5    A(1,2,6)              126.5293         -DE/DX =    0.0                 !
 ! A6    A(3,2,6)              127.3911         -DE/DX =   -0.0001              !
 ! A7    A(2,3,4)              106.0831         -DE/DX =    0.0                 !
 ! A8    A(2,3,7)              127.3933         -DE/DX =   -0.0001              !
 ! A9    A(4,3,7)              126.5237         -DE/DX =    0.0                 !
 ! A10   A(3,4,8)              133.8318         -DE/DX =    0.0                 !
 ! A11   A(3,4,9)              110.5325         -DE/DX =    0.0                 !
 ! A12   A(8,4,9)              115.6357         -DE/DX =    0.0                 !
 ! A13   A(1,9,4)              106.7692         -DE/DX =    0.0                 !
 ! D1    D(5,1,2,3)            180.0049         -DE/DX =    0.0                 !
 ! D2    D(5,1,2,6)             -0.0012         -DE/DX =    0.0                 !
 ! D3    D(9,1,2,3)              0.0059         -DE/DX =    0.0                 !
 ! D4    D(9,1,2,6)            179.9998         -DE/DX =    0.0                 !
 ! D5    D(2,1,9,4)              0.0035         -DE/DX =    0.0                 !
 ! D6    D(5,1,9,4)            180.0043         -DE/DX =    0.0                 !
 ! D7    D(1,2,3,4)             -0.0129         -DE/DX =    0.0                 !
 ! D8    D(1,2,3,7)           -180.0048         -DE/DX =    0.0                 !
 ! D9    D(6,2,3,4)           -180.0068         -DE/DX =    0.0                 !
 ! D10   D(6,2,3,7)              0.0014         -DE/DX =    0.0                 !
 ! D11   D(2,3,4,8)            180.0049         -DE/DX =    0.0                 !
 ! D12   D(2,3,4,9)              0.0156         -DE/DX =    0.0                 !
 ! D13   D(7,3,4,8)             -0.0032         -DE/DX =    0.0                 !
 ! D14   D(7,3,4,9)            180.0075         -DE/DX =    0.0                 !
 ! D15   D(3,4,9,1)             -0.0122         -DE/DX =    0.0                 !
 ! D16   D(8,4,9,1)           -180.0036         -DE/DX =    0.0                 !
 --------------------------------------------------------------------------------
 Lowest energy point so far.  Saving SCF results.
 GradGradGradGradGradGradGradGradGradGradGradGradGradGradGradGradGradGrad

 Largest change from initial coordinates is atom    5       0.032 Angstoms.
 Leave Link  103 at Tue Feb  7 16:42:35 2017, MaxMem=  1048576000 cpu:         0.0
 (Enter /mnt/data/applications/G09/g09/l202.exe)
                          Input orientation:                          
 ---------------------------------------------------------------------
 Center     Atomic      Atomic             Coordinates (Angstroms)
 Number     Number       Type             X           Y           Z
 ---------------------------------------------------------------------
      1          6    10061000       -1.891313    0.205608    0.483770
      2          6    10061000       -0.530810    0.179370    0.483688
      3          6    10061000       -0.106593    1.551111    0.483742
      4          6    10061000       -1.244368    2.297566    0.483557
      5          1    10011000       -2.653673   -0.558483    0.483839
      6          1    10011000        0.095846   -0.701623    0.483692
      7          1    10011000        0.907989    1.924582    0.483774
      8          1    10011000       -1.442257    3.358634    0.483449
      9          8    10081000       -2.345087    1.491962    0.483740
 ---------------------------------------------------------------------
                    Distance matrix (angstroms):
                    1          2          3          4          5
     1  C    0.000000
     2  C    1.360756   0.000000
     3  C    2.235085   1.435839   0.000000
     4  C    2.189709   2.235156   1.360782   0.000000
     5  H    1.079364   2.247437   3.307265   3.184832   0.000000
     6  H    2.184461   1.081132   2.261812   3.285013   2.753243
     7  H    3.284960   2.261837   1.081137   2.184436   4.341779
     8  H    3.184844   3.307334   2.247474   1.079364   4.100163
     9  O    1.364044   2.239307   2.239275   1.364030   2.073535
                    6          7          8          9
     6  H    0.000000
     7  H    2.748914   0.000000
     8  H    4.341826   2.753210   0.000000
     9  O    3.281763   3.281716   2.073540   0.000000
 Symmetry turned off by external request.
 Stoichiometry    C4H4O
 Framework group  C1[X(C4H4O)]
 Deg. of freedom    21
 Full point group                 C1      NOp   1
 Rotational constants (GHZ):      9.4608315      9.2472978      4.6764230
 Leave Link  202 at Tue Feb  7 16:42:35 2017, MaxMem=  1048576000 cpu:         0.0
 (Enter /mnt/data/applications/G09/g09/l9999.exe)
 1\1\GINC-KIMIK2096\FOpt\ONIOM(B3LYP/6-31G(d):External='./sictwo_files/
 sictwo_g09d01')\Mixed\C4H4O1\IFUNES\07-Feb-2017\0\\#p opt=nomicro onio
 m(B3LYP/6-31G*:external="./sictwo_files/sictwo_g09d01") geom=connectiv
 ity nosymm scf(maxcyc=100)\\ONIOM(QM:MM) OPT FREQ with SICTWO V1.0\\0,
 1\C,-1.8913132395,0.2056076418,0.4837704447\C,-0.5308098027,0.17936978
 38,0.4836879667\C,-0.1065931345,1.5511106078,0.4837417138\C,-1.2443684
 207,2.2975660148,0.483557044\H,-2.6536729373,-0.5584829817,0.483838527
 \H,0.0958461812,-0.701623233,0.4836920251\H,0.9079889383,1.9245818205,
 0.4837742662\H,-1.4422570955,3.3586343822,0.483449355\O,-2.3450865094,
 1.4919617838,0.4837402776\\Version=EM64L-G09RevD.01\HF=0.0140286\RMSD=
 1.241e-09\RMSF=6.311e-05\Dipole=0.2372831,-0.0733807,-0.0000279\PG=C01
  [X(C4H4O1)]\\@


 DO NOT LET SELFISH MEN OR GREEDY INTERESTS SKIN YOUR COUNTRY OF ITS
 BEAUTY, ITS RICHES, OR ITS ROMANCE. -- THEODORE ROOSEVELT
 Job cpu time:       0 days  0 hours  5 minutes 19.0 seconds.
 File lengths (MBytes):  RWF=      6 Int=      0 D2E=      0 Chk=      3 Scr=      1
 Normal termination of Gaussian 09 at Tue Feb  7 16:42:35 2017.
