 Entering Gaussian System, Link 0=g09
 Initial command:
 /mnt/data/applications/G09/g09/l1.exe "/scratch/Gau-7246.inp" -scrdir="/scratch/"
 Entering Link 1 = /mnt/data/applications/G09/g09/l1.exe PID=      7247.
  
 Copyright (c) 1988,1990,1992,1993,1995,1998,2003,2009,2013,
            Gaussian, Inc.  All Rights Reserved.
  
 This is part of the Gaussian(R) 09 program.  It is based on
 the Gaussian(R) 03 system (copyright 2003, Gaussian, Inc.),
 the Gaussian(R) 98 system (copyright 1998, Gaussian, Inc.),
 the Gaussian(R) 94 system (copyright 1995, Gaussian, Inc.),
 the Gaussian 92(TM) system (copyright 1992, Gaussian, Inc.),
 the Gaussian 90(TM) system (copyright 1990, Gaussian, Inc.),
 the Gaussian 88(TM) system (copyright 1988, Gaussian, Inc.),
 the Gaussian 86(TM) system (copyright 1986, Carnegie Mellon
 University), and the Gaussian 82(TM) system (copyright 1983,
 Carnegie Mellon University). Gaussian is a federally registered
 trademark of Gaussian, Inc.
  
 This software contains proprietary and confidential information,
 including trade secrets, belonging to Gaussian, Inc.
  
 This software is provided under written license and may be
 used, copied, transmitted, or stored only in accord with that
 written license.
  
 The following legend is applicable only to US Government
 contracts under FAR:
  
                    RESTRICTED RIGHTS LEGEND
  
 Use, reproduction and disclosure by the US Government is
 subject to restrictions as set forth in subparagraphs (a)
 and (c) of the Commercial Computer Software - Restricted
 Rights clause in FAR 52.227-19.
  
 Gaussian, Inc.
 340 Quinnipiac St., Bldg. 40, Wallingford CT 06492
  
  
 ---------------------------------------------------------------
 Warning -- This program may not be used in any manner that
 competes with the business of Gaussian, Inc. or will provide
 assistance to any competitor of Gaussian, Inc.  The licensee
 of this program is prohibited from giving any competitor of
 Gaussian, Inc. access to this program.  By using this program,
 the user acknowledges that Gaussian, Inc. is engaged in the
 business of creating and licensing software in the field of
 computational chemistry and represents and warrants to the
 licensee that it is not a competitor of Gaussian, Inc. and that
 it will not use this program in any manner prohibited above.
 ---------------------------------------------------------------
  

 Cite this work as:
 Gaussian 09, Revision D.01,
 M. J. Frisch, G. W. Trucks, H. B. Schlegel, G. E. Scuseria, 
 M. A. Robb, J. R. Cheeseman, G. Scalmani, V. Barone, B. Mennucci, 
 G. A. Petersson, H. Nakatsuji, M. Caricato, X. Li, H. P. Hratchian, 
 A. F. Izmaylov, J. Bloino, G. Zheng, J. L. Sonnenberg, M. Hada, 
 M. Ehara, K. Toyota, R. Fukuda, J. Hasegawa, M. Ishida, T. Nakajima, 
 Y. Honda, O. Kitao, H. Nakai, T. Vreven, J. A. Montgomery, Jr., 
 J. E. Peralta, F. Ogliaro, M. Bearpark, J. J. Heyd, E. Brothers, 
 K. N. Kudin, V. N. Staroverov, T. Keith, R. Kobayashi, J. Normand, 
 K. Raghavachari, A. Rendell, J. C. Burant, S. S. Iyengar, J. Tomasi, 
 M. Cossi, N. Rega, J. M. Millam, M. Klene, J. E. Knox, J. B. Cross, 
 V. Bakken, C. Adamo, J. Jaramillo, R. Gomperts, R. E. Stratmann, 
 O. Yazyev, A. J. Austin, R. Cammi, C. Pomelli, J. W. Ochterski, 
 R. L. Martin, K. Morokuma, V. G. Zakrzewski, G. A. Voth, 
 P. Salvador, J. J. Dannenberg, S. Dapprich, A. D. Daniels, 
 O. Farkas, J. B. Foresman, J. V. Ortiz, J. Cioslowski, 
 and D. J. Fox, Gaussian, Inc., Wallingford CT, 2013.
 
 ******************************************
 Gaussian 09:  EM64L-G09RevD.01 24-Apr-2013
                 7-Feb-2017 
 ******************************************
 %nprocshared=8
 Will use up to    8 processors via shared memory.
 %mem=8000MB
 %chk=C_3
 ----------------------------------------------------------------------
 #p opt=nomicro oniom(B3LYP/6-31G*:external="./sictwo_files/sictwo_g09d
 01") geom=connectivity nosymm scf(maxcyc=100)
 ----------------------------------------------------------------------
 1/14=-1,18=20,19=15,26=1,38=1,52=2,57=2/1,3;
 2/9=110,12=2,15=1,17=6,18=5,40=1/2;
 1/14=-1,18=20,19=15,26=1,38=1,52=2,53=3172/20;
 3/11=9,16=1,25=1,30=1,41=9900000,43=2,71=1/1;
 4/20=17,22=1,23=100,24=3,113=1,114=1/2;
 6/7=2,8=2,9=2,10=2/1;
 7/7=1,30=1,33=-1,44=-1/16;
 1/14=-1,18=20,19=15,26=1,52=2,53=2032/20;
 3/5=1,6=6,7=1,11=2,16=1,25=1,30=1,71=1,74=-5/1,2,3;
 4//1;
 5/5=2,7=100,38=5/2;
 6/7=2,8=2,9=2,10=2,28=1/1;
 7/7=1,30=1,33=-1/1,2,3,16;
 1/14=-1,18=20,19=15,26=1,52=2,53=1022/20;
 3/11=9,16=1,25=1,30=1,41=9900000,43=2,71=1/1;
 4/20=17,22=1,23=100,24=3,113=1,114=2/2;
 6/7=2,8=2,9=2,10=2/1;
 7/7=1,30=1,33=-1,44=-1/16;
 1/14=-1,18=20,19=15,26=1,52=2,53=3015/20;
 7/9=1,44=-1/16;
 1/14=-1,18=20,19=15,26=1,52=2/3(2);
 2/9=110,15=1/2;
 99//99;
 2/9=110,15=1/2;
 1/14=-1,18=20,19=15,26=1,52=2,53=3173/20;
 3/11=9,16=1,25=1,30=1,41=9900000,43=2,71=1/1;
 4/16=2,20=17,22=1,23=100,24=3,113=1,114=1/2;
 7/7=1,30=1,33=-1,44=-1/16;
 1/14=-1,18=20,19=15,26=1,52=2,53=2033/20;
 3/5=1,6=6,7=1,11=2,16=1,25=1,30=1,71=1,74=-5/1,2,3;
 4/5=5,16=3,69=1/1;
 5/5=2,7=100,38=5/2;
 7/7=1,30=1,33=-1/1,2,3,16;
 1/14=-1,18=20,19=15,26=1,52=2,53=1023/20;
 3/11=9,16=1,25=1,30=1,41=9900000,43=2,71=1/1;
 4/16=2,20=17,22=1,23=100,24=3,113=1,114=2/2;
 7/7=1,30=1,33=-1,44=-1/16;
 1/14=-1,18=20,19=15,26=1,52=2,53=3015/20;
 7/9=1,44=-1/16;
 1/14=-1,18=20,19=15,26=1,52=2/3(-16);
 2/9=110,15=1/2;
 99//99;
 Leave Link    1 at Tue Feb  7 16:27:26 2017, MaxMem=  1048576000 cpu:         0.8
 (Enter /mnt/data/applications/G09/g09/l101.exe)
 --------------------------------------
 ONIOM(QM:MM) OPT FREQ with SICTWO V1.0
 --------------------------------------
 Symbolic Z-matrix:
 Charge =  0 Multiplicity = 1 for low   level calculation on real  system.
 Charge =  0 Multiplicity = 1 for high  level calculation on model system.
 Charge =  0 Multiplicity = 1 for low   level calculation on model system.
 C-C_2                0    -2.36842   0.38462   0.       H 
 O-O_2                0    -1.74138   1.46353   0.16231  H 
 C-C_3                0    -3.90842   0.38462   0.       H 
 H-H_                 0    -4.26509   0.88902  -0.87365  H 
 H-H_                 0    -4.26509  -0.62419   0.       H 
 H-H_                 0    -4.26509   0.88902   0.87365  H 
 C-C_3                0    -1.60106  -0.93573  -0.19863  H 
 H-H_                 0    -1.80801  -1.59492   0.61841  H 
 H-H_                 0    -1.91129  -1.39428  -1.11426  H 
 C-C_3                0    -0.08937  -0.64736  -0.25533  L    H-H_     7     0.        0. 
 H-H_                 0     0.11454   0.03067  -1.05758  L 
 H-H_                 0     0.22537  -0.21071   0.66942  L 
 C-C_3                0     0.67586  -1.96331  -0.48837  L 
 H-H_                 0     0.36701  -2.39585  -1.41704  L 
 H-H_                 0     1.72669  -1.7641   -0.51968  L 
 H-H_                 0     0.46557  -2.64432   0.3097   L 
 
 NAtoms=     16 NQM=       16 NQMF=       0 NMMI=      0 NMMIF=      0
                NMic=       0 NMicF=      0.
                    Isotopes and Nuclear Properties:
 (Nuclear quadrupole moments (NQMom) in fm**2, nuclear magnetic moments (NMagM)
  in nuclear magnetons)

  Atom         1           2           3           4           5           6           7           8           9          10
 IAtWgt=          12          16          12           1           1           1          12           1           1          12
 AtmWgt=  12.0000000  15.9949146  12.0000000   1.0078250   1.0078250   1.0078250  12.0000000   1.0078250   1.0078250  12.0000000
 NucSpn=           0           0           0           1           1           1           0           1           1           0
 AtZEff=   0.0000000   0.0000000   0.0000000   0.0000000   0.0000000   0.0000000   0.0000000   0.0000000   0.0000000   0.0000000
 NQMom=    0.0000000   0.0000000   0.0000000   0.0000000   0.0000000   0.0000000   0.0000000   0.0000000   0.0000000   0.0000000
 NMagM=    0.0000000   0.0000000   0.0000000   2.7928460   2.7928460   2.7928460   0.0000000   2.7928460   2.7928460   0.0000000
 AtZNuc=   6.0000000   8.0000000   6.0000000   1.0000000   1.0000000   1.0000000   6.0000000   1.0000000   1.0000000   6.0000000

  Atom        11          12          13          14          15          16
 IAtWgt=           1           1          12           1           1           1
 AtmWgt=   1.0078250   1.0078250  12.0000000   1.0078250   1.0078250   1.0078250
 NucSpn=           1           1           0           1           1           1
 AtZEff=   0.0000000   0.0000000   0.0000000   0.0000000   0.0000000   0.0000000
 NQMom=    0.0000000   0.0000000   0.0000000   0.0000000   0.0000000   0.0000000
 NMagM=    2.7928460   2.7928460   0.0000000   2.7928460   2.7928460   2.7928460
 AtZNuc=   1.0000000   1.0000000   6.0000000   1.0000000   1.0000000   1.0000000
 Leave Link  101 at Tue Feb  7 16:27:27 2017, MaxMem=  1048576000 cpu:         2.9
 (Enter /mnt/data/applications/G09/g09/l103.exe)

 GradGradGradGradGradGradGradGradGradGradGradGradGradGradGradGradGradGrad
 Berny optimization.
 Initialization pass.
                           ----------------------------
                           !    Initial Parameters    !
                           ! (Angstroms and Degrees)  !
 --------------------------                            --------------------------
 ! Name  Definition              Value          Derivative Info.                !
 --------------------------------------------------------------------------------
 ! R1    R(1,2)                  1.2584         estimate D2E/DX2                !
 ! R2    R(1,3)                  1.54           estimate D2E/DX2                !
 ! R3    R(1,7)                  1.54           estimate D2E/DX2                !
 ! R4    R(3,4)                  1.07           estimate D2E/DX2                !
 ! R5    R(3,5)                  1.07           estimate D2E/DX2                !
 ! R6    R(3,6)                  1.07           estimate D2E/DX2                !
 ! R7    R(7,8)                  1.07           estimate D2E/DX2                !
 ! R8    R(7,9)                  1.07           estimate D2E/DX2                !
 ! R9    R(7,10)                 1.54           estimate D2E/DX2                !
 ! R10   R(10,11)                1.07           estimate D2E/DX2                !
 ! R11   R(10,12)                1.07           estimate D2E/DX2                !
 ! R12   R(10,13)                1.54           estimate D2E/DX2                !
 ! R13   R(13,14)                1.07           estimate D2E/DX2                !
 ! R14   R(13,15)                1.07           estimate D2E/DX2                !
 ! R15   R(13,16)                1.07           estimate D2E/DX2                !
 ! A1    A(2,1,3)              119.8865         estimate D2E/DX2                !
 ! A2    A(2,1,7)              120.2269         estimate D2E/DX2                !
 ! A3    A(3,1,7)              119.8865         estimate D2E/DX2                !
 ! A4    A(1,3,4)              109.4712         estimate D2E/DX2                !
 ! A5    A(1,3,5)              109.4712         estimate D2E/DX2                !
 ! A6    A(1,3,6)              109.4712         estimate D2E/DX2                !
 ! A7    A(4,3,5)              109.4713         estimate D2E/DX2                !
 ! A8    A(4,3,6)              109.4712         estimate D2E/DX2                !
 ! A9    A(5,3,6)              109.4712         estimate D2E/DX2                !
 ! A10   A(1,7,8)              109.4712         estimate D2E/DX2                !
 ! A11   A(1,7,9)              109.4712         estimate D2E/DX2                !
 ! A12   A(1,7,10)             109.4712         estimate D2E/DX2                !
 ! A13   A(8,7,9)              109.4713         estimate D2E/DX2                !
 ! A14   A(8,7,10)             109.4712         estimate D2E/DX2                !
 ! A15   A(9,7,10)             109.4712         estimate D2E/DX2                !
 ! A16   A(7,10,11)            109.4712         estimate D2E/DX2                !
 ! A17   A(7,10,12)            109.4712         estimate D2E/DX2                !
 ! A18   A(7,10,13)            109.4712         estimate D2E/DX2                !
 ! A19   A(11,10,12)           109.4712         estimate D2E/DX2                !
 ! A20   A(11,10,13)           109.4713         estimate D2E/DX2                !
 ! A21   A(12,10,13)           109.4712         estimate D2E/DX2                !
 ! A22   A(10,13,14)           109.4712         estimate D2E/DX2                !
 ! A23   A(10,13,15)           109.4712         estimate D2E/DX2                !
 ! A24   A(10,13,16)           109.4712         estimate D2E/DX2                !
 ! A25   A(14,13,15)           109.4713         estimate D2E/DX2                !
 ! A26   A(14,13,16)           109.4712         estimate D2E/DX2                !
 ! A27   A(15,13,16)           109.4712         estimate D2E/DX2                !
 ! D1    D(2,1,3,4)             68.5551         estimate D2E/DX2                !
 ! D2    D(2,1,3,5)           -171.4449         estimate D2E/DX2                !
 ! D3    D(2,1,3,6)            -51.4449         estimate D2E/DX2                !
 ! D4    D(7,1,3,4)           -111.4449         estimate D2E/DX2                !
 ! D5    D(7,1,3,5)              8.5551         estimate D2E/DX2                !
 ! D6    D(7,1,3,6)            128.5551         estimate D2E/DX2                !
 ! D7    D(2,1,7,8)            116.0912         estimate D2E/DX2                !
 ! D8    D(2,1,7,9)           -123.9088         estimate D2E/DX2                !
 ! D9    D(2,1,7,10)            -3.9088         estimate D2E/DX2                !
 ! D10   D(3,1,7,8)            -63.9088         estimate D2E/DX2                !
 ! D11   D(3,1,7,9)             56.0912         estimate D2E/DX2                !
 ! D12   D(3,1,7,10)           176.0912         estimate D2E/DX2                !
 ! D13   D(1,7,10,11)          -58.6284         estimate D2E/DX2                !
 ! D14   D(1,7,10,12)           61.3716         estimate D2E/DX2                !
 ! D15   D(1,7,10,13)         -178.6284         estimate D2E/DX2                !
 ! D16   D(8,7,10,11)         -178.6284         estimate D2E/DX2                !
 ! D17   D(8,7,10,12)          -58.6284         estimate D2E/DX2                !
 ! D18   D(8,7,10,13)           61.3716         estimate D2E/DX2                !
 ! D19   D(9,7,10,11)           61.3716         estimate D2E/DX2                !
 ! D20   D(9,7,10,12)         -178.6284         estimate D2E/DX2                !
 ! D21   D(9,7,10,13)          -58.6285         estimate D2E/DX2                !
 ! D22   D(7,10,13,14)          60.4648         estimate D2E/DX2                !
 ! D23   D(7,10,13,15)        -179.5352         estimate D2E/DX2                !
 ! D24   D(7,10,13,16)         -59.5352         estimate D2E/DX2                !
 ! D25   D(11,10,13,14)        -59.5352         estimate D2E/DX2                !
 ! D26   D(11,10,13,15)         60.4648         estimate D2E/DX2                !
 ! D27   D(11,10,13,16)       -179.5352         estimate D2E/DX2                !
 ! D28   D(12,10,13,14)       -179.5352         estimate D2E/DX2                !
 ! D29   D(12,10,13,15)        -59.5352         estimate D2E/DX2                !
 ! D30   D(12,10,13,16)         60.4648         estimate D2E/DX2                !
 --------------------------------------------------------------------------------
 Trust Radius=3.00D-01 FncErr=1.00D-07 GrdErr=1.00D-07
 Number of steps in this run=     82 maximum allowed number of steps=    100.
 GradGradGradGradGradGradGradGradGradGradGradGradGradGradGradGradGradGrad

 Leave Link  103 at Tue Feb  7 16:27:27 2017, MaxMem=  1048576000 cpu:         0.1
 (Enter /mnt/data/applications/G09/g09/l202.exe)
                          Input orientation:                          
 ---------------------------------------------------------------------
 Center     Atomic      Atomic             Coordinates (Angstroms)
 Number     Number       Type             X           Y           Z
 ---------------------------------------------------------------------
      1          6    10061002       -2.368421    0.384615    0.000000
      2          8    10081002       -1.741381    1.463526    0.162305
      3          6    10061003       -3.908421    0.384615    0.000000
      4          1    10011000       -4.265087    0.889018   -0.873651
      5          1    10011000       -4.265087   -0.624190    0.000000
      6          1    10011000       -4.265088    0.889018    0.873651
      7          6    10061003       -1.601064   -0.935730   -0.198625
      8          1    10011000       -1.808014   -1.594917    0.618408
      9          1    10011000       -1.911285   -1.394283   -1.114263
     10          6    10061003       -0.089366   -0.647364   -0.255334
     11          1    10011000        0.114544    0.030668   -1.057576
     12          1    10011000        0.225375   -0.210711    0.669421
     13          6    10061003        0.675861   -1.963313   -0.488370
     14          1    10011000        0.367010   -2.395848   -1.417039
     15          1    10011000        1.726686   -1.764103   -0.519683
     16          1    10011000        0.465569   -2.644317    0.309697
 ---------------------------------------------------------------------
                    Distance matrix (angstroms):
                    1          2          3          4          5
     1  C    0.000000
     2  O    1.258400   0.000000
     3  C    1.540000   2.426202   0.000000
     4  H    2.148263   2.787895   1.070000   0.000000
     5  H    2.148263   3.279329   1.070000   1.747303   0.000000
     6  H    2.148263   2.684245   1.070000   1.747303   1.747303
     7  C    1.540000   2.430306   2.665832   3.298846   2.689522
     8  H    2.148263   3.092983   2.951726   3.799129   2.713291
     9  H    2.148263   3.134575   2.897346   3.288121   2.715697
    10  C    2.514810   2.712827   3.964260   4.492152   4.183584
    11  H    2.721922   2.643037   4.174685   4.466740   4.552854
    12  H    2.744142   2.632178   4.229752   4.873882   4.558875
    13  C    3.875426   4.243779   5.173675   5.718147   5.142443
    14  H    4.149887   4.672730   5.293230   5.704555   5.157819
    15  H    4.653704   4.786458   6.053222   6.562446   6.121342
    16  H    4.159548   4.665482   5.329365   6.021950   5.153245
                    6          7          8          9         10
     6  H    0.000000
     7  C    3.402426   0.000000
     8  H    3.503183   1.070000   0.000000
     9  H    3.834795   1.070000   1.747303   0.000000
    10  C    4.590395   1.540000   2.148263   2.148263   0.000000
    11  H    4.862878   2.148263   3.024514   2.477434   1.070000
    12  H    4.627674   2.148263   2.460345   3.024514   1.070000
    13  C    5.865481   2.514809   2.744141   2.721922   1.540000
    14  H    6.123229   2.736749   3.084683   2.507077   2.148263
    15  H    6.699387   3.444300   3.717255   3.704744   2.148263
    16  H    5.931409   2.729218   2.523039   3.039684   2.148263
                   11         12         13         14         15
    11  H    0.000000
    12  H    1.747303   0.000000
    13  C    2.148263   2.148263   0.000000
    14  H    2.465955   3.024599   1.070000   0.000000
    15  H    2.471747   2.465955   1.070000   1.747303   0.000000
    16  H    3.024599   2.471747   1.070000   1.747303   1.747303
                   16
    16  H    0.000000
 Symmetry turned off by external request.
 Stoichiometry    C5H10O
 Framework group  C1[X(C5H10O)]
 Deg. of freedom    42
 Full point group                 C1      NOp   1
 Rotational constants (GHZ):      8.3836113      1.7954706      1.5345622
 Leave Link  202 at Tue Feb  7 16:27:27 2017, MaxMem=  1048576000 cpu:         0.0
 (Enter /mnt/data/applications/G09/g09/l120.exe)
 ONIOM: Cut between C /H    10 and C     7 factor= 0.723886 0.723886
 ONIOM: saving gridpoint 17
 ONIOM: generating point  3 -- low level on real system.
 Leave Link  120 at Tue Feb  7 16:27:27 2017, MaxMem=  1048576000 cpu:         0.0
 (Enter /mnt/data/applications/G09/g09/l301.exe)
 Standard basis: STO-3G (5D, 7F)
 Ernie: Thresh=  0.10000D-02 Tol=  0.10000D-05 Strict=F.
    40 basis functions,   120 primitive gaussians,    40 cartesian basis functions
    24 alpha electrons       24 beta electrons
       nuclear repulsion energy       235.3975794158 Hartrees.
 IExCor=    0 DFT=F Ex=HF Corr=None ExCW=0 ScaHFX=  1.000000
 ScaDFX=  1.000000  1.000000  1.000000  1.000000 ScalE2=  1.000000  1.000000
 IRadAn=      0 IRanWt=     -1 IRanGd=            0 ICorTp=0 IEmpDi=  4
 NAtoms=   16 NActive=   16 NUniq=   16 SFac= 1.00D+00 NAtFMM=   60 NAOKFM=F Big=F
 Integral buffers will be    131072 words long.
 Raffenetti 1 integral format.
 Two-electron integral symmetry is turned off.
 Leave Link  301 at Tue Feb  7 16:27:27 2017, MaxMem=  1048576000 cpu:         0.7
 (Enter /mnt/data/applications/G09/g09/l402.exe)
 External calculation of energy and first derivatives.
 Running external command "./sictwo_files/sictwo_g09d01 R"
         input file       "/scratch/Gau-7247.EIn"
         output file      "/scratch/Gau-7247.EOu"
         message file     "/scratch/Gau-7247.EMs"
         fchk file        "/scratch/Gau-7247.EFC"
         mat. el file     "/scratch/Gau-7247.EUF"

---------------------------- SICTWO Version 1.0 STARTED -----------------------------

MM calculations started
MM calculations finished ....
Information recovery

---------------------------- SICTWO Version 1.0 FINISHED -----------------------------

 Recovered energy= 0.876926758280E-02 dipole=     -0.764435156449     -1.314450775963     -0.197895462529
 Energy=    8.769267583E-03 NIter=   0.
 Dipole moment=      -0.764435      -1.314451      -0.197895
 Leave Link  402 at Tue Feb  7 16:27:31 2017, MaxMem=  1048576000 cpu:        23.7
 (Enter /mnt/data/applications/G09/g09/l601.exe)
 Leave Link  601 at Tue Feb  7 16:27:31 2017, MaxMem=  1048576000 cpu:         0.2
 (Enter /mnt/data/applications/G09/g09/l716.exe)
 Dipole        =-7.64435156D-01-1.31445078D+00-1.97895463D-01
 Cartesian Forces:  Max     0.031326375 RMS     0.012555667
 Leave Link  716 at Tue Feb  7 16:27:31 2017, MaxMem=  1048576000 cpu:         0.2
 (Enter /mnt/data/applications/G09/g09/l120.exe)
 SvSCFP did not find density file   528.
 ONIOM: saving gridpoint  3
 ONIOM: restoring gridpoint 17
 ONIOM: generating point  2 -- high level on model system.
 Leave Link  120 at Tue Feb  7 16:27:31 2017, MaxMem=  1048576000 cpu:         0.0
 (Enter /mnt/data/applications/G09/g09/l301.exe)
 Standard basis: 6-31G(d) (6D, 7F)
 Ernie: Thresh=  0.10000D-02 Tol=  0.10000D-05 Strict=F.
    72 basis functions,   136 primitive gaussians,    72 cartesian basis functions
    16 alpha electrons       16 beta electrons
       nuclear repulsion energy       117.6008444183 Hartrees.
 IExCor=  402 DFT=T Ex+Corr=B3LYP ExCW=0 ScaHFX=  0.200000
 ScaDFX=  0.800000  0.720000  1.000000  0.810000 ScalE2=  1.000000  1.000000
 IRadAn=      0 IRanWt=     -1 IRanGd=            0 ICorTp=0 IEmpDi=  4
 NAtoms=   16 NActive=   10 NUniq=   10 SFac= 1.00D+00 NAtFMM=   60 NAOKFM=F Big=F
 Integral buffers will be    131072 words long.
 Raffenetti 2 integral format.
 Two-electron integral symmetry is turned off.
 Leave Link  301 at Tue Feb  7 16:27:31 2017, MaxMem=  1048576000 cpu:         0.4
 (Enter /mnt/data/applications/G09/g09/l302.exe)
 NPDir=0 NMtPBC=     1 NCelOv=     1 NCel=       1 NClECP=     1 NCelD=      1
         NCelK=      1 NCelE2=     1 NClLst=     1 CellRange=     0.0.
 One-electron integrals computed using PRISM.
 NBasis=    72 RedAO= T EigKep=  5.47D-03  NBF=    72
 NBsUse=    72 1.00D-06 EigRej= -1.00D+00 NBFU=    72
 Precomputing XC quadrature grid using
 IXCGrd= 4 IRadAn=           0 IRanWt=          -1 IRanGd=           0 AccXCQ= 0.00D+00.
 Generated NRdTot=       0 NPtTot=           0 NUsed=           0 NTot=          32
 NSgBfM=    72    72    72    72    72 MxSgAt=    10 MxSgA2=    10.
 Leave Link  302 at Tue Feb  7 16:27:32 2017, MaxMem=  1048576000 cpu:         1.7
 (Enter /mnt/data/applications/G09/g09/l303.exe)
 DipDrv:  MaxL=1.
 Leave Link  303 at Tue Feb  7 16:27:32 2017, MaxMem=  1048576000 cpu:         0.3
 (Enter /mnt/data/applications/G09/g09/l401.exe)
 ExpMin= 1.61D-01 ExpMax= 5.48D+03 ExpMxC= 8.25D+02 IAcc=1 IRadAn=         1 AccDes= 0.00D+00
 Harris functional with IExCor=  402 and IRadAn=       1 diagonalized for initial guess.
 HarFok:  IExCor=  402 AccDes= 0.00D+00 IRadAn=         1 IDoV= 1 UseB2=F ITyADJ=14
 ICtDFT=  3500011 ScaDFX=  1.000000  1.000000  1.000000  1.000000
 FoFCou: FMM=F IPFlag=           0 FMFlag=      100000 FMFlg1=           0
         NFxFlg=           0 DoJE=T BraDBF=F KetDBF=T FulRan=T
         wScrn=  0.000000 ICntrl=     500 IOpCl=  0 I1Cent=   200000004 NGrid=           0
         NMat0=    1 NMatS0=      1 NMatT0=    0 NMatD0=    1 NMtDS0=    0 NMtDT0=    0
 Symmetry not used in FoFCou.
 Harris En= -193.203402208356    
 JPrj=0 DoOrth=F DoCkMO=F.
 Leave Link  401 at Tue Feb  7 16:27:32 2017, MaxMem=  1048576000 cpu:         1.9
 (Enter /mnt/data/applications/G09/g09/l502.exe)
 Closed shell SCF:
 Using DIIS extrapolation, IDIIS=  1040.
 Two-electron integral symmetry not used.
 Keep R1 ints in memory in canonical form, NReq=4377494.
 IVT=       28618 IEndB=       28618 NGot=  1048576000 MDV=  1045092877
 LenX=  1045092877 LenY=  1045087252
 Requested convergence on RMS density matrix=1.00D-08 within 100 cycles.
 Requested convergence on MAX density matrix=1.00D-06.
 Requested convergence on             energy=1.00D-06.
 No special actions if energy rises.
 FoFCou: FMM=F IPFlag=           0 FMFlag=           0 FMFlg1=           0
         NFxFlg=           0 DoJE=F BraDBF=F KetDBF=F FulRan=T
         wScrn=  0.000000 ICntrl=     600 IOpCl=  0 I1Cent=           0 NGrid=           0
         NMat0=    1 NMatS0=   2628 NMatT0=    0 NMatD0=    1 NMtDS0=    0 NMtDT0=    0
 Symmetry not used in FoFCou.
 Integral accuracy reduced to 1.0D-05 until final iterations.

 Cycle   1  Pass 0  IDiag  1:
 E= -192.978098666127    
 DIIS: error= 5.70D-02 at cycle   1 NSaved=   1.
 NSaved= 1 IEnMin= 1 EnMin= -192.978098666127     IErMin= 1 ErrMin= 5.70D-02
 ErrMax= 5.70D-02  0.00D+00 EMaxC= 1.00D-01 BMatC= 1.83D-01 BMatP= 1.83D-01
 IDIUse=3 WtCom= 4.30D-01 WtEn= 5.70D-01
 Coeff-Com:  0.100D+01
 Coeff-En:   0.100D+01
 Coeff:      0.100D+01
 Gap=     0.109 Goal=   None    Shift=    0.000
 GapD=    0.109 DampG=1.000 DampE=0.500 DampFc=0.5000 IDamp=-1.
 Damping current iteration by 5.00D-01
 RMSDP=1.32D-02 MaxDP=2.05D-01              OVMax= 3.20D-01

 Cycle   2  Pass 0  IDiag  1:
 E= -193.031420915876     Delta-E=       -0.053322249750 Rises=F Damp=T
 DIIS: error= 1.92D-02 at cycle   2 NSaved=   2.
 NSaved= 2 IEnMin= 2 EnMin= -193.031420915876     IErMin= 2 ErrMin= 1.92D-02
 ErrMax= 1.92D-02  0.00D+00 EMaxC= 1.00D-01 BMatC= 2.71D-02 BMatP= 1.83D-01
 IDIUse=3 WtCom= 8.08D-01 WtEn= 1.92D-01
 Coeff-Com:  0.215D+00 0.785D+00
 Coeff-En:   0.310D+00 0.690D+00
 Coeff:      0.233D+00 0.767D+00
 Gap=     0.217 Goal=   None    Shift=    0.000
 RMSDP=3.96D-03 MaxDP=6.02D-02 DE=-5.33D-02 OVMax= 2.66D-01

 Cycle   3  Pass 0  IDiag  1:
 E= -193.120657923281     Delta-E=       -0.089237007405 Rises=F Damp=F
 DIIS: error= 2.42D-02 at cycle   3 NSaved=   3.
 NSaved= 3 IEnMin= 3 EnMin= -193.120657923281     IErMin= 2 ErrMin= 1.92D-02
 ErrMax= 2.42D-02  0.00D+00 EMaxC= 1.00D-01 BMatC= 3.13D-02 BMatP= 2.71D-02
 IDIUse=2 WtCom= 0.00D+00 WtEn= 1.00D+00
 Coeff-En:   0.000D+00 0.000D+00 0.100D+01
 Coeff:      0.000D+00 0.000D+00 0.100D+01
 Gap=     0.189 Goal=   None    Shift=    0.000
 RMSDP=6.53D-03 MaxDP=1.24D-01 DE=-8.92D-02 OVMax= 2.35D-01

 Cycle   4  Pass 0  IDiag  1:
 E= -193.003261914615     Delta-E=        0.117396008666 Rises=F Damp=F
 DIIS: error= 5.85D-02 at cycle   4 NSaved=   4.
 NSaved= 4 IEnMin= 3 EnMin= -193.120657923281     IErMin= 2 ErrMin= 1.92D-02
 ErrMax= 5.85D-02  0.00D+00 EMaxC= 1.00D-01 BMatC= 1.79D-01 BMatP= 2.71D-02
 IDIUse=2 WtCom= 0.00D+00 WtEn= 1.00D+00
 Coeff-En:   0.000D+00 0.000D+00 0.787D+00 0.213D+00
 Coeff:      0.000D+00 0.000D+00 0.787D+00 0.213D+00
 Gap=     0.207 Goal=   None    Shift=    0.000
 RMSDP=3.70D-03 MaxDP=6.90D-02 DE= 1.17D-01 OVMax= 1.31D-01

 Cycle   5  Pass 0  IDiag  1:
 E= -193.139105707507     Delta-E=       -0.135843792893 Rises=F Damp=F
 DIIS: error= 1.38D-02 at cycle   5 NSaved=   5.
 NSaved= 5 IEnMin= 5 EnMin= -193.139105707507     IErMin= 5 ErrMin= 1.38D-02
 ErrMax= 1.38D-02  0.00D+00 EMaxC= 1.00D-01 BMatC= 1.09D-02 BMatP= 2.71D-02
 IDIUse=3 WtCom= 8.62D-01 WtEn= 1.38D-01
 Coeff-Com: -0.173D-01 0.539D-01 0.276D+00-0.100D+00 0.788D+00
 Coeff-En:   0.000D+00 0.000D+00 0.298D+00 0.000D+00 0.702D+00
 Coeff:     -0.149D-01 0.465D-01 0.279D+00-0.867D-01 0.776D+00
 Gap=     0.221 Goal=   None    Shift=    0.000
 RMSDP=1.17D-03 MaxDP=2.07D-02 DE=-1.36D-01 OVMax= 3.79D-02

 Cycle   6  Pass 0  IDiag  1:
 E= -193.148471130828     Delta-E=       -0.009365423321 Rises=F Damp=F
 DIIS: error= 6.12D-04 at cycle   6 NSaved=   6.
 NSaved= 6 IEnMin= 6 EnMin= -193.148471130828     IErMin= 6 ErrMin= 6.12D-04
 ErrMax= 6.12D-04  0.00D+00 EMaxC= 1.00D-01 BMatC= 2.39D-05 BMatP= 1.09D-02
 IDIUse=3 WtCom= 9.94D-01 WtEn= 6.12D-03
 Coeff-Com: -0.671D-02 0.131D-01 0.785D-01-0.306D-01 0.264D+00 0.682D+00
 Coeff-En:   0.000D+00 0.000D+00 0.000D+00 0.000D+00 0.000D+00 0.100D+01
 Coeff:     -0.666D-02 0.131D-01 0.781D-01-0.304D-01 0.262D+00 0.684D+00
 Gap=     0.221 Goal=   None    Shift=    0.000
 RMSDP=6.23D-05 MaxDP=1.28D-03 DE=-9.37D-03 OVMax= 1.99D-03

 Cycle   7  Pass 0  IDiag  1:
 E= -193.148489550875     Delta-E=       -0.000018420046 Rises=F Damp=F
 DIIS: error= 1.02D-04 at cycle   7 NSaved=   7.
 NSaved= 7 IEnMin= 7 EnMin= -193.148489550875     IErMin= 7 ErrMin= 1.02D-04
 ErrMax= 1.02D-04  0.00D+00 EMaxC= 1.00D-01 BMatC= 6.83D-07 BMatP= 2.39D-05
 IDIUse=3 WtCom= 9.99D-01 WtEn= 1.02D-03
 Coeff-Com: -0.179D-02 0.271D-02 0.165D-01-0.815D-02 0.671D-01 0.319D+00
 Coeff-Com:  0.604D+00
 Coeff-En:   0.000D+00 0.000D+00 0.000D+00 0.000D+00 0.000D+00 0.000D+00
 Coeff-En:   0.100D+01
 Coeff:     -0.179D-02 0.271D-02 0.165D-01-0.814D-02 0.670D-01 0.319D+00
 Coeff:      0.605D+00
 Gap=     0.221 Goal=   None    Shift=    0.000
 RMSDP=1.45D-05 MaxDP=1.65D-04 DE=-1.84D-05 OVMax= 2.40D-04

 Cycle   8  Pass 0  IDiag  1:
 E= -193.148490156367     Delta-E=       -0.000000605492 Rises=F Damp=F
 DIIS: error= 9.54D-06 at cycle   8 NSaved=   8.
 NSaved= 8 IEnMin= 8 EnMin= -193.148490156367     IErMin= 8 ErrMin= 9.54D-06
 ErrMax= 9.54D-06  0.00D+00 EMaxC= 1.00D-01 BMatC= 7.78D-09 BMatP= 6.83D-07
 IDIUse=1 WtCom= 1.00D+00 WtEn= 0.00D+00
 Coeff-Com: -0.723D-05-0.117D-03 0.125D-03-0.355D-03 0.182D-02 0.223D-01
 Coeff-Com:  0.668D-01 0.909D+00
 Coeff:     -0.723D-05-0.117D-03 0.125D-03-0.355D-03 0.182D-02 0.223D-01
 Coeff:      0.668D-01 0.909D+00
 Gap=     0.221 Goal=   None    Shift=    0.000
 RMSDP=1.24D-06 MaxDP=1.59D-05 DE=-6.05D-07 OVMax= 2.01D-05

 Initial convergence to 1.0D-05 achieved.  Increase integral accuracy.
 Cycle   9  Pass 1  IDiag  1:
 E= -193.148481242179     Delta-E=        0.000008914187 Rises=F Damp=F
 DIIS: error= 4.74D-06 at cycle   1 NSaved=   1.
 NSaved= 1 IEnMin= 1 EnMin= -193.148481242179     IErMin= 1 ErrMin= 4.74D-06
 ErrMax= 4.74D-06  0.00D+00 EMaxC= 1.00D-01 BMatC= 4.24D-09 BMatP= 4.24D-09
 IDIUse=1 WtCom= 1.00D+00 WtEn= 0.00D+00
 Coeff-Com:  0.100D+01
 Coeff:      0.100D+01
 Gap=     0.221 Goal=   None    Shift=    0.000
 RMSDP=1.24D-06 MaxDP=1.59D-05 DE= 8.91D-06 OVMax= 2.31D-05

 Cycle  10  Pass 1  IDiag  1:
 E= -193.148481247064     Delta-E=       -0.000000004885 Rises=F Damp=F
 DIIS: error= 4.01D-06 at cycle   2 NSaved=   2.
 NSaved= 2 IEnMin= 2 EnMin= -193.148481247064     IErMin= 2 ErrMin= 4.01D-06
 ErrMax= 4.01D-06  0.00D+00 EMaxC= 1.00D-01 BMatC= 9.96D-10 BMatP= 4.24D-09
 IDIUse=1 WtCom= 1.00D+00 WtEn= 0.00D+00
 Coeff-Com:  0.217D+00 0.783D+00
 Coeff:      0.217D+00 0.783D+00
 Gap=     0.221 Goal=   None    Shift=    0.000
 RMSDP=9.51D-07 MaxDP=1.94D-05 DE=-4.89D-09 OVMax= 3.23D-05

 Cycle  11  Pass 1  IDiag  1:
 E= -193.148481246064     Delta-E=        0.000000001000 Rises=F Damp=F
 DIIS: error= 6.91D-06 at cycle   3 NSaved=   3.
 NSaved= 3 IEnMin= 2 EnMin= -193.148481247064     IErMin= 2 ErrMin= 4.01D-06
 ErrMax= 6.91D-06  0.00D+00 EMaxC= 1.00D-01 BMatC= 2.38D-09 BMatP= 9.96D-10
 IDIUse=1 WtCom= 1.00D+00 WtEn= 0.00D+00
 Coeff-Com: -0.275D-02 0.611D+00 0.391D+00
 Coeff:     -0.275D-02 0.611D+00 0.391D+00
 Gap=     0.221 Goal=   None    Shift=    0.000
 RMSDP=5.28D-07 MaxDP=1.20D-05 DE= 1.00D-09 OVMax= 1.98D-05

 Cycle  12  Pass 1  IDiag  1:
 E= -193.148481247881     Delta-E=       -0.000000001816 Rises=F Damp=F
 DIIS: error= 4.94D-07 at cycle   4 NSaved=   4.
 NSaved= 4 IEnMin= 4 EnMin= -193.148481247881     IErMin= 4 ErrMin= 4.94D-07
 ErrMax= 4.94D-07  0.00D+00 EMaxC= 1.00D-01 BMatC= 2.67D-11 BMatP= 9.96D-10
 IDIUse=1 WtCom= 1.00D+00 WtEn= 0.00D+00
 Coeff-Com: -0.153D-01 0.269D+00 0.188D+00 0.558D+00
 Coeff:     -0.153D-01 0.269D+00 0.188D+00 0.558D+00
 Gap=     0.221 Goal=   None    Shift=    0.000
 RMSDP=7.85D-08 MaxDP=1.34D-06 DE=-1.82D-09 OVMax= 1.33D-06

 Cycle  13  Pass 1  IDiag  1:
 E= -193.148481247905     Delta-E=       -0.000000000024 Rises=F Damp=F
 DIIS: error= 1.09D-07 at cycle   5 NSaved=   5.
 NSaved= 5 IEnMin= 5 EnMin= -193.148481247905     IErMin= 5 ErrMin= 1.09D-07
 ErrMax= 1.09D-07  0.00D+00 EMaxC= 1.00D-01 BMatC= 1.25D-12 BMatP= 2.67D-11
 IDIUse=1 WtCom= 1.00D+00 WtEn= 0.00D+00
 Coeff-Com: -0.530D-02 0.793D-01 0.507D-01 0.237D+00 0.639D+00
 Coeff:     -0.530D-02 0.793D-01 0.507D-01 0.237D+00 0.639D+00
 Gap=     0.221 Goal=   None    Shift=    0.000
 RMSDP=1.70D-08 MaxDP=2.16D-07 DE=-2.43D-11 OVMax= 2.59D-07

 Cycle  14  Pass 1  IDiag  1:
 E= -193.148481247906     Delta-E=       -0.000000000001 Rises=F Damp=F
 DIIS: error= 1.71D-08 at cycle   6 NSaved=   6.
 NSaved= 6 IEnMin= 6 EnMin= -193.148481247906     IErMin= 6 ErrMin= 1.71D-08
 ErrMax= 1.71D-08  0.00D+00 EMaxC= 1.00D-01 BMatC= 3.86D-14 BMatP= 1.25D-12
 IDIUse=1 WtCom= 1.00D+00 WtEn= 0.00D+00
 Coeff-Com: -0.634D-03 0.659D-02 0.196D-02 0.390D-01 0.193D+00 0.760D+00
 Coeff:     -0.634D-03 0.659D-02 0.196D-02 0.390D-01 0.193D+00 0.760D+00
 Gap=     0.221 Goal=   None    Shift=    0.000
 RMSDP=3.43D-09 MaxDP=5.36D-08 DE=-1.02D-12 OVMax= 5.46D-08

 SCF Done:  E(RB3LYP) =  -193.148481248     A.U. after   14 cycles
            NFock= 14  Conv=0.34D-08     -V/T= 2.0097
 KE= 1.912863568993D+02 PE=-6.851792672449D+02 EE= 1.831435846793D+02
 Leave Link  502 at Tue Feb  7 16:27:34 2017, MaxMem=  1048576000 cpu:        11.9
 (Enter /mnt/data/applications/G09/g09/l601.exe)
 Copying SCF densities to generalized density rwf, IOpCl= 0 IROHF=0.

 **********************************************************************

            Population analysis using the SCF density.

 **********************************************************************

 Alpha  occ. eigenvalues --  -19.13287 -10.28256 -10.19176 -10.18842  -1.00989
 Alpha  occ. eigenvalues --   -0.76524  -0.71546  -0.53199  -0.45836  -0.44958
 Alpha  occ. eigenvalues --   -0.44702  -0.41851  -0.38584  -0.38011  -0.33403
 Alpha  occ. eigenvalues --   -0.24116
 Alpha virt. eigenvalues --   -0.02021   0.09558   0.14278   0.15121   0.15356
 Alpha virt. eigenvalues --    0.15632   0.19389   0.19868   0.27757   0.31348
 Alpha virt. eigenvalues --    0.49364   0.52817   0.56084   0.57776   0.60176
 Alpha virt. eigenvalues --    0.65888   0.66704   0.68214   0.73945   0.81903
 Alpha virt. eigenvalues --    0.86702   0.87617   0.89689   0.90246   0.92929
 Alpha virt. eigenvalues --    0.94951   0.97449   1.02213   1.10440   1.18678
 Alpha virt. eigenvalues --    1.35130   1.38609   1.44855   1.52182   1.75666
 Alpha virt. eigenvalues --    1.77793   1.79923   1.80250   1.88928   1.91563
 Alpha virt. eigenvalues --    1.98758   2.12254   2.14871   2.23979   2.25846
 Alpha virt. eigenvalues --    2.33522   2.36117   2.43115   2.56948   2.63694
 Alpha virt. eigenvalues --    2.91004   2.92168   3.88157   4.05936   4.26410
 Alpha virt. eigenvalues --    4.45451
          Condensed to atoms (all electrons):
               1          2          3          4          5          6
     1  C    4.508440   0.550456   0.307688  -0.016825  -0.021984  -0.016914
     2  O    0.550456   8.036564  -0.078933  -0.000940   0.003755   0.000132
     3  C    0.307688  -0.078933   5.324974   0.365782   0.339603   0.365162
     4  H   -0.016825  -0.000940   0.365782   0.504375  -0.027173  -0.018035
     5  H   -0.021984   0.003755   0.339603  -0.027173   0.574507  -0.027327
     6  H   -0.016914   0.000132   0.365162  -0.018035  -0.027327   0.502581
     7  C    0.328128  -0.075025  -0.119866   0.003236   0.005474   0.004078
     8  H   -0.020756   0.001288   0.003476   0.000019   0.000130  -0.000279
     9  H   -0.023041   0.001726   0.004651  -0.000141  -0.000639   0.000018
    10  H   -0.020760   0.005054   0.005323  -0.000151  -0.000105  -0.000137
               7          8          9         10
     1  C    0.328128  -0.020756  -0.023041  -0.020760
     2  O   -0.075025   0.001288   0.001726   0.005054
     3  C   -0.119866   0.003476   0.004651   0.005323
     4  H    0.003236   0.000019  -0.000141  -0.000151
     5  H    0.005474   0.000130  -0.000639  -0.000105
     6  H    0.004078  -0.000279   0.000018  -0.000137
     7  C    5.317166   0.354257   0.352928   0.353805
     8  H    0.354257   0.535447  -0.026704  -0.022014
     9  H    0.352928  -0.026704   0.542717  -0.023014
    10  H    0.353805  -0.022014  -0.023014   0.522419
 Mulliken charges:
               1
     1  C    0.425570
     2  O   -0.444078
     3  C   -0.517859
     4  H    0.189853
     5  H    0.153760
     6  H    0.190721
     7  C   -0.524180
     8  H    0.175135
     9  H    0.171498
    10  H    0.179580
    11  H    0.000000
    12  H    0.000000
    13  C    0.000000
    14  H    0.000000
    15  H    0.000000
    16  H    0.000000
 Sum of Mulliken charges =   0.00000
 Mulliken charges with hydrogens summed into heavy atoms:
               1
     1  C    0.425570
     2  O   -0.444078
     3  C    0.016475
     7  C    0.002034
    13  C    0.000000
 Electronic spatial extent (au):  <R**2>=            985.1077
 Charge=              0.0000 electrons
 Dipole moment (field-independent basis, Debye):
    X=             -1.5390    Y=             -2.4402    Z=             -0.3800  Tot=              2.9099
 Quadrupole moment (field-independent basis, Debye-Ang):
   XX=            -16.8878   YY=            -28.2782   ZZ=            -23.7593
   XY=              3.0957   XZ=              0.6469   YZ=             -0.5675
 Traceless Quadrupole moment (field-independent basis, Debye-Ang):
   XX=              6.0873   YY=             -5.3031   ZZ=             -0.7842
   XY=              3.0957   XZ=              0.6469   YZ=             -0.5675
 Octapole moment (field-independent basis, Debye-Ang**2):
  XXX=            153.2261  YYY=            -21.8782  ZZZ=              1.8597  XYY=             65.7871
  XXY=             -6.2203  XXZ=             -0.5218  XZZ=             57.7925  YZZ=             -4.7227
  YYZ=              0.0116  XYZ=              1.0077
 Hexadecapole moment (field-independent basis, Debye-Ang**3):
 XXXX=           -990.8577 YYYY=           -170.0962 ZZZZ=            -36.7196 XXXY=             37.1020
 XXXZ=             -0.6983 YYYX=             65.1422 YYYZ=            -10.5015 ZZZX=             -2.1809
 ZZZY=             -7.8875 XXYY=           -212.1340 XXZZ=           -177.3570 YYZZ=            -30.6146
 XXYZ=             -4.6363 YYXZ=              0.5236 ZZXY=             14.9772
 N-N= 1.176008444183D+02 E-N=-6.851792656100D+02  KE= 1.912863568993D+02
 No NMR shielding tensors so no spin-rotation constants.
 Leave Link  601 at Tue Feb  7 16:27:34 2017, MaxMem=  1048576000 cpu:         1.0
 (Enter /mnt/data/applications/G09/g09/l701.exe)
 Compute integral first derivatives.
 ... and contract with generalized density number  0.
 Leave Link  701 at Tue Feb  7 16:27:34 2017, MaxMem=  1048576000 cpu:         1.1
 (Enter /mnt/data/applications/G09/g09/l702.exe)
 L702 exits ... SP integral derivatives will be done elsewhere.
 Leave Link  702 at Tue Feb  7 16:27:34 2017, MaxMem=  1048576000 cpu:         0.2
 (Enter /mnt/data/applications/G09/g09/l703.exe)
 Compute integral first derivatives, UseDBF=F ICtDFT=           0.
 Integral derivatives from FoFJK, PRISM(SPDF).
 Calling FoFJK, ICntrl=      2127 FMM=F ISym2X=0 I1Cent= 0 IOpClX= 0 NMat=1 NMatS=1 NMatT=0.
 FoFJK:  IHMeth= 1 ICntrl=    2127 DoSepK=F KAlg= 0 I1Cent=   0 FoldK=F
 IRaf=         0 NMat=   1 IRICut=       1 DoRegI=T DoRafI=F ISym2E= 0.
 FoFCou: FMM=F IPFlag=           0 FMFlag=      100000 FMFlg1=         800
         NFxFlg=           0 DoJE=F BraDBF=F KetDBF=F FulRan=T
         wScrn=  0.000000 ICntrl=    2127 IOpCl=  0 I1Cent=           0 NGrid=           0
         NMat0=    1 NMatS0=      1 NMatT0=    0 NMatD0=    1 NMtDS0=    0 NMtDT0=    0
 Symmetry not used in FoFCou.
 Leave Link  703 at Tue Feb  7 16:27:35 2017, MaxMem=  1048576000 cpu:         4.6
 (Enter /mnt/data/applications/G09/g09/l716.exe)
 Dipole        =-6.05489458D-01-9.60062300D-01-1.49492233D-01
 Cartesian Forces:  Max     0.050295081 RMS     0.015345259
 Leave Link  716 at Tue Feb  7 16:27:35 2017, MaxMem=  1048576000 cpu:         0.2
 (Enter /mnt/data/applications/G09/g09/l120.exe)
 SvSCFP is copying densities from files   528 and   530 to   603.
 ONIOM: saving gridpoint  2
 ONIOM: restoring gridpoint 17
 ONIOM: generating point  1 -- low level on model system.
 Leave Link  120 at Tue Feb  7 16:27:35 2017, MaxMem=  1048576000 cpu:         0.2
 (Enter /mnt/data/applications/G09/g09/l301.exe)
 Standard basis: STO-3G (5D, 7F)
 Ernie: Thresh=  0.10000D-02 Tol=  0.10000D-05 Strict=F.
    26 basis functions,    78 primitive gaussians,    26 cartesian basis functions
    16 alpha electrons       16 beta electrons
       nuclear repulsion energy       117.6008444183 Hartrees.
 IExCor=    0 DFT=F Ex=HF Corr=None ExCW=0 ScaHFX=  1.000000
 ScaDFX=  1.000000  1.000000  1.000000  1.000000 ScalE2=  1.000000  1.000000
 IRadAn=      0 IRanWt=     -1 IRanGd=            0 ICorTp=0 IEmpDi=  4
 NAtoms=   16 NActive=   10 NUniq=   10 SFac= 1.00D+00 NAtFMM=   60 NAOKFM=F Big=F
 Integral buffers will be    131072 words long.
 Raffenetti 1 integral format.
 Two-electron integral symmetry is turned off.
 Leave Link  301 at Tue Feb  7 16:27:35 2017, MaxMem=  1048576000 cpu:         0.3
 (Enter /mnt/data/applications/G09/g09/l402.exe)
 External calculation of energy and first derivatives.
 Running external command "./sictwo_files/sictwo_g09d01 M"
         input file       "/scratch/Gau-7247.EIn"
         output file      "/scratch/Gau-7247.EOu"
         message file     "/scratch/Gau-7247.EMs"
         fchk file        "/scratch/Gau-7247.EFC"
         mat. el file     "/scratch/Gau-7247.EUF"

---------------------------- SICTWO Version 1.0 STARTED -----------------------------

MM calculations started
MM calculations finished ....
Information recovery

---------------------------- SICTWO Version 1.0 FINISHED -----------------------------

 Recovered energy= 0.829851784740E-02 dipole=     -0.764435156449     -1.314450775963     -0.197895462529
 Energy=    8.298517847E-03 NIter=   0.
 Dipole moment=      -0.764435      -1.314451      -0.197895
 Leave Link  402 at Tue Feb  7 16:27:38 2017, MaxMem=  1048576000 cpu:        16.8
 (Enter /mnt/data/applications/G09/g09/l601.exe)
 Leave Link  601 at Tue Feb  7 16:27:38 2017, MaxMem=  1048576000 cpu:         0.2
 (Enter /mnt/data/applications/G09/g09/l716.exe)
 Dipole        =-7.64435156D-01-1.31445078D+00-1.97895463D-01
 Cartesian Forces:  Max     0.029545163 RMS     0.009840755
 Leave Link  716 at Tue Feb  7 16:27:38 2017, MaxMem=  1048576000 cpu:         0.2
 (Enter /mnt/data/applications/G09/g09/l120.exe)
 SvSCFP did not find density file   528.
 ONIOM: saving gridpoint  1
 ONIOM: restoring gridpoint  3
 ONIOM: calculating energy.
 ONIOM: gridpoint  1 method:  low   system:  model energy:     0.008298517847
 ONIOM: gridpoint  2 method:  high  system:  model energy:  -193.148481247906
 ONIOM: gridpoint  3 method:  low   system:  real  energy:     0.008769267583
 ONIOM: extrapolated energy =    -193.148010498171
 ONIOM: calculating first derivatives.
 ONIOM: calculating electric field derivatives.
 ONIOM: Integrating ONIOM file  4 number   619
 ONIOM: Dipole        =-6.05489458D-01-9.60062300D-01-1.49492233D-01
 ONIOM: Dipole moment (Debye):
    X=    -1.5390    Y=    -2.4402    Z=    -0.3800  Tot=     2.9099
 ONIOM: Integrating ONIOM file  5 number   695
 Nuclear Quadrupole Tensors: 
                 1             2             3             4             5 
      1   0.262738D+00  0.131931D+01 -0.725295D-01  0.109481D+00  0.106786D+00
      2  -0.218730D-01 -0.116152D+01  0.133140D-02  0.792397D-01 -0.155805D+00
      3   0.222406D+00 -0.355562D-01  0.440114D-01  0.589046D-01 -0.277064D+00
      4  -0.454330D-02 -0.199258D+00  0.259702D-02 -0.135798D+00  0.126035D-03
      5   0.109808D+00  0.205886D+00  0.863485D-02  0.194571D+00 -0.610967D-03
      6  -0.485143D+00 -0.128376D+01  0.285181D-01 -0.168386D+00  0.170278D+00
                 6             7             8             9            10 
      1   0.109418D+00 -0.123946D-02  0.147919D+00  0.123763D+00  0.000000D+00
      2   0.792646D-01  0.609427D-01 -0.581329D-01 -0.599433D-01  0.000000D+00
      3   0.579035D-01 -0.116113D-01 -0.246418D-01  0.741126D-01  0.000000D+00
      4   0.135623D+00  0.937142D-02  0.778357D-01 -0.127186D+00  0.000000D+00
      5  -0.193685D+00 -0.532756D-02  0.237263D+00 -0.186133D+00  0.000000D+00
      6  -0.167321D+00  0.128508D-01 -0.123277D+00 -0.197876D+00  0.000000D+00
                11            12            13            14            15 
      1   0.000000D+00  0.000000D+00  0.000000D+00  0.000000D+00  0.000000D+00
      2   0.000000D+00  0.000000D+00  0.000000D+00  0.000000D+00  0.000000D+00
      3   0.000000D+00  0.000000D+00  0.000000D+00  0.000000D+00  0.000000D+00
      4   0.000000D+00  0.000000D+00  0.000000D+00  0.000000D+00  0.000000D+00
      5   0.000000D+00  0.000000D+00  0.000000D+00  0.000000D+00  0.000000D+00
      6   0.000000D+00  0.000000D+00  0.000000D+00  0.000000D+00  0.000000D+00
                16 
      1   0.000000D+00
      2   0.000000D+00
      3   0.000000D+00
      4   0.000000D+00
      5   0.000000D+00
      6   0.000000D+00
 Saving ESP charges from gridpoint 2
 Leave Link  120 at Tue Feb  7 16:27:38 2017, MaxMem=  1048576000 cpu:         0.0
 (Enter /mnt/data/applications/G09/g09/l716.exe)
 Dipole        =-6.05489458D-01-9.60062300D-01-1.49492233D-01
 -------------------------------------------------------------------
 Center     Atomic                   Forces (Hartrees/Bohr)
 Number     Number              X              Y              Z
 -------------------------------------------------------------------
      1        6           0.030022848    0.050828475    0.008097563
      2        8          -0.034590497   -0.045891890   -0.006848865
      3        6           0.030670797   -0.011465647    0.001487537
      4        1          -0.005752617    0.009174159   -0.013652932
      5        1          -0.009927241   -0.015182271   -0.000762404
      6        1          -0.005080126    0.009811943    0.012377030
      7        6           0.013198911    0.034488265    0.001499755
      8        1          -0.007672418   -0.013986998    0.012795821
      9        1          -0.009301401   -0.011153915   -0.014494128
     10        6          -0.012742447   -0.030905364   -0.003269268
     11        1           0.005269679    0.010831054   -0.010732051
     12        1           0.006641976    0.007612779    0.012540164
     13        6          -0.011794436    0.023737208    0.004191692
     14        1          -0.002430466   -0.007930449   -0.012697439
     15        1           0.014576979    0.001243104   -0.000696732
     16        1          -0.001089624   -0.011210453    0.010164259
 -------------------------------------------------------------------
 Cartesian Forces:  Max     0.050828475 RMS     0.017157763
 Leave Link  716 at Tue Feb  7 16:27:38 2017, MaxMem=  1048576000 cpu:         0.3
 (Enter /mnt/data/applications/G09/g09/l103.exe)

 GradGradGradGradGradGradGradGradGradGradGradGradGradGradGradGradGradGrad
 Berny optimization.
 FormGI is forming the generalized inverse of G from B-inverse, IUseBI=4.
 Internal  Forces:  Max     0.057465582 RMS     0.009880744
 Search for a local minimum.
 Step number   1 out of a maximum of   82
 All quantities printed in internal units (Hartrees-Bohrs-Radians)
 RMS Force = .98807D-02 SwitMx=.10000D-02 MixMth= 1
 Mixed Optimization -- RFO/linear search
 Second derivative matrix not updated -- first step.
 ITU=  0
     Eigenvalues ---    0.00237   0.00237   0.00237   0.00237   0.00237
     Eigenvalues ---    0.03840   0.04356   0.04896   0.05410   0.05720
     Eigenvalues ---    0.05720   0.07243   0.07243   0.07655   0.08669
     Eigenvalues ---    0.11701   0.12376   0.16000   0.16000   0.16000
     Eigenvalues ---    0.16000   0.16000   0.16000   0.21948   0.21983
     Eigenvalues ---    0.25000   0.25000   0.28519   0.28519   0.28519
     Eigenvalues ---    0.28519   0.37230   0.37230   0.37230   0.37230
     Eigenvalues ---    0.37230   0.37230   0.37230   0.37230   0.37230
     Eigenvalues ---    0.37230   0.80209
 RFO step:  Lambda=-1.57964136D-02 EMin= 2.36824112D-03
 Linear search not attempted -- first point.
 Iteration  1 RMS(Cart)=  0.04547562 RMS(Int)=  0.00112765
 Iteration  2 RMS(Cart)=  0.00165460 RMS(Int)=  0.00024990
 Iteration  3 RMS(Cart)=  0.00000124 RMS(Int)=  0.00024989
 Iteration  4 RMS(Cart)=  0.00000000 RMS(Int)=  0.00024989
 ITry= 1 IFail=0 DXMaxC= 1.53D-01 DCOld= 1.00D+10 DXMaxT= 3.00D-01 DXLimC= 3.00D+00 Rises=F
 Variable       Old X    -DE/DX   Delta X   Delta X   Delta X     New X
                                 (Linear)    (Quad)   (Total)
    R1        2.37803  -0.05747   0.00000  -0.07026  -0.07026   2.30777
    R2        2.91018  -0.00991   0.00000  -0.03293  -0.03293   2.87725
    R3        2.91018  -0.00491   0.00000  -0.01631  -0.01631   2.89387
    R4        2.02201   0.01739   0.00000   0.04481   0.04481   2.06681
    R5        2.02201   0.01762   0.00000   0.04541   0.04541   2.06742
    R6        2.02201   0.01642   0.00000   0.04232   0.04232   2.06433
    R7        2.02201   0.01987   0.00000   0.05120   0.05120   2.07321
    R8        2.02201   0.01988   0.00000   0.05122   0.05122   2.07323
    R9        2.91018  -0.00276   0.00000  -0.00917  -0.00917   2.90101
   R10        2.02201   0.01591   0.00000   0.04101   0.04101   2.06301
   R11        2.02201   0.01590   0.00000   0.04097   0.04097   2.06297
   R12        2.91018  -0.00550   0.00000  -0.01828  -0.01828   2.89190
   R13        2.02201   0.01493   0.00000   0.03846   0.03846   2.06047
   R14        2.02201   0.01457   0.00000   0.03754   0.03754   2.05954
   R15        2.02201   0.01493   0.00000   0.03847   0.03847   2.06048
    A1        2.09241  -0.00168   0.00000  -0.00633  -0.00633   2.08609
    A2        2.09836   0.01466   0.00000   0.05514   0.05514   2.15349
    A3        2.09241  -0.01297   0.00000  -0.04881  -0.04881   2.04360
    A4        1.91063  -0.00162   0.00000  -0.01356  -0.01375   1.89688
    A5        1.91063   0.00731   0.00000   0.04802   0.04791   1.95854
    A6        1.91063  -0.00182   0.00000  -0.01241  -0.01269   1.89794
    A7        1.91063  -0.00193   0.00000  -0.00685  -0.00688   1.90375
    A8        1.91063  -0.00112   0.00000  -0.01920  -0.01957   1.89106
    A9        1.91063  -0.00082   0.00000   0.00400   0.00381   1.91444
   A10        1.91063  -0.00413   0.00000  -0.02137  -0.02220   1.88843
   A11        1.91063  -0.00374   0.00000  -0.01571  -0.01679   1.89384
   A12        1.91063   0.00998   0.00000   0.05255   0.05205   1.96268
   A13        1.91063  -0.00155   0.00000  -0.04072  -0.04117   1.86947
   A14        1.91063  -0.00035   0.00000   0.01087   0.01103   1.92166
   A15        1.91063  -0.00021   0.00000   0.01438   0.01431   1.92495
   A16        1.91063  -0.00025   0.00000   0.00775   0.00780   1.91843
   A17        1.91063  -0.00031   0.00000   0.00684   0.00690   1.91753
   A18        1.91063   0.00482   0.00000   0.02587   0.02578   1.93641
   A19        1.91063  -0.00037   0.00000  -0.01888  -0.01905   1.89158
   A20        1.91063  -0.00194   0.00000  -0.01050  -0.01078   1.89985
   A21        1.91063  -0.00196   0.00000  -0.01108  -0.01134   1.89929
   A22        1.91063   0.00302   0.00000   0.01789   0.01776   1.92839
   A23        1.91063   0.00088   0.00000   0.00348   0.00345   1.91409
   A24        1.91063   0.00304   0.00000   0.01808   0.01795   1.92858
   A25        1.91063  -0.00219   0.00000  -0.01405  -0.01407   1.89656
   A26        1.91063  -0.00256   0.00000  -0.01151  -0.01175   1.89888
   A27        1.91063  -0.00219   0.00000  -0.01389  -0.01391   1.89672
    D1        1.19651  -0.00144   0.00000  -0.01201  -0.01183   1.18468
    D2       -2.99228  -0.00031   0.00000   0.00070   0.00068  -2.99160
    D3       -0.89788   0.00204   0.00000   0.02740   0.02735  -0.87053
    D4       -1.94508  -0.00136   0.00000  -0.00781  -0.00770  -1.95279
    D5        0.14931  -0.00024   0.00000   0.00491   0.00481   0.15412
    D6        2.24371   0.00212   0.00000   0.03160   0.03148   2.27519
    D7        2.02617   0.00335   0.00000   0.03826   0.03783   2.06400
    D8       -2.16262  -0.00337   0.00000  -0.03431  -0.03385  -2.19646
    D9       -0.06822   0.00020   0.00000   0.00586   0.00595  -0.06227
   D10       -1.11542   0.00327   0.00000   0.03405   0.03353  -1.08189
   D11        0.97898  -0.00345   0.00000  -0.03853  -0.03814   0.94083
   D12        3.07337   0.00012   0.00000   0.00164   0.00165   3.07502
   D13       -1.02326   0.00017   0.00000   0.00182   0.00186  -1.02140
   D14        1.07114  -0.00062   0.00000  -0.01236  -0.01249   1.05865
   D15       -3.11765  -0.00025   0.00000  -0.00591  -0.00596  -3.12362
   D16       -3.11765  -0.00066   0.00000  -0.01084  -0.01103  -3.12868
   D17       -1.02326  -0.00146   0.00000  -0.02503  -0.02537  -1.04863
   D18        1.07114  -0.00109   0.00000  -0.01857  -0.01885   1.05229
   D19        1.07114   0.00158   0.00000   0.02356   0.02396   1.09510
   D20       -3.11765   0.00078   0.00000   0.00938   0.00962  -3.10804
   D21       -1.02326   0.00115   0.00000   0.01583   0.01614  -1.00712
   D22        1.05531   0.00031   0.00000   0.00354   0.00360   1.05891
   D23       -3.13348   0.00000   0.00000  -0.00058  -0.00058  -3.13406
   D24       -1.03908  -0.00027   0.00000  -0.00439  -0.00445  -1.04353
   D25       -1.03908  -0.00116   0.00000  -0.01536  -0.01520  -1.05429
   D26        1.05531  -0.00146   0.00000  -0.01949  -0.01938   1.03593
   D27       -3.13348  -0.00174   0.00000  -0.02330  -0.02325   3.12646
   D28       -3.13348   0.00168   0.00000   0.02097   0.02092  -3.11256
   D29       -1.03908   0.00138   0.00000   0.01684   0.01674  -1.02235
   D30        1.05531   0.00110   0.00000   0.01304   0.01287   1.06818
         Item               Value     Threshold  Converged?
 Maximum Force            0.057466     0.000450     NO 
 RMS     Force            0.009881     0.000300     NO 
 Maximum Displacement     0.153007     0.001800     NO 
 RMS     Displacement     0.045018     0.001200     NO 
 Predicted change in Energy=-8.316589D-03
 Lowest energy point so far.  Saving SCF results.
 GradGradGradGradGradGradGradGradGradGradGradGradGradGradGradGradGradGrad

 Leave Link  103 at Tue Feb  7 16:27:38 2017, MaxMem=  1048576000 cpu:         0.1
 (Enter /mnt/data/applications/G09/g09/l202.exe)
                          Input orientation:                          
 ---------------------------------------------------------------------
 Center     Atomic      Atomic             Coordinates (Angstroms)
 Number     Number       Type             X           Y           Z
 ---------------------------------------------------------------------
      1          6    10061002       -2.364044    0.433371    0.011272
      2          8    10081002       -1.822348    1.515497    0.175423
      3          6    10061003       -3.884257    0.349251    0.000518
      4          1    10011000       -4.257081    0.859595   -0.892094
      5          1    10011000       -4.241301   -0.684869   -0.003472
      6          1    10011000       -4.270804    0.868694    0.880341
      7          6    10061003       -1.591859   -0.872949   -0.194511
      8          1    10011000       -1.840339   -1.551535    0.630956
      9          1    10011000       -1.946827   -1.345450   -1.118840
     10          6    10061003       -0.073882   -0.652974   -0.258009
     11          1    10011000        0.168808    0.032845   -1.071987
     12          1    10011000        0.276856   -0.214093    0.678008
     13          6    10061003        0.661332   -1.975017   -0.489440
     14          1    10011000        0.352257   -2.423305   -1.434100
     15          1    10011000        1.735881   -1.796137   -0.523315
     16          1    10011000        0.449436   -2.676239    0.318191
 ---------------------------------------------------------------------
                    Distance matrix (angstroms):
                    1          2          3          4          5
     1  C    0.000000
     2  O    1.221219   0.000000
     3  C    1.522576   2.375329   0.000000
     4  H    2.140403   2.738197   1.093711   0.000000
     5  H    2.185125   3.274897   1.094030   1.781928   0.000000
     6  H    2.140214   2.628725   1.092395   1.772511   1.787611
     7  C    1.531368   2.427890   2.605167   3.254495   2.662971
     8  H    2.144325   3.100729   2.861475   3.738164   2.630253
     9  H    2.148355   3.142552   2.806886   3.201705   2.635342
    10  C    2.549020   2.819090   3.948449   4.493226   4.175307
    11  H    2.783741   2.778308   4.204488   4.506037   4.594116
    12  H    2.799661   2.765996   4.253376   4.916768   4.593451
    13  C    3.899224   4.335251   5.128807   5.691040   5.092785
    14  H    4.198570   4.778455   5.262437   5.684822   5.115626
    15  H    4.697434   4.910821   6.038464   6.565402   6.101792
    16  H    4.204705   4.769910   5.294846   6.009843   5.106079
                    6          7          8          9         10
     6  H    0.000000
     7  C    3.371256   0.000000
     8  H    3.439020   1.097095   0.000000
     9  H    3.781538   1.097107   1.765105   0.000000
    10  C    4.607110   1.535147   2.172105   2.174506   0.000000
    11  H    4.921421   2.165728   3.073589   2.525432   1.091699
    12  H    4.679164   2.165058   2.504691   3.074637   1.091678
    13  C    5.855677   2.525551   2.773622   2.755901   1.530326
    14  H    6.129158   2.778448   3.135588   2.558699   2.167684
    15  H    6.719512   3.469041   3.765836   3.757673   2.156954
    16  H    5.929858   2.771571   2.570185   3.094855   2.167826
                   11         12         13         14         15
    11  H    0.000000
    12  H    1.770631   0.000000
    13  C    2.147895   2.147466   0.000000
    14  H    2.489469   3.057335   1.090354   0.000000
    15  H    2.470210   2.464710   1.089863   1.771238   0.000000
    16  H    3.057856   2.494276   1.090357   1.773117   1.771342
                   16
    16  H    0.000000
 Symmetry turned off by external request.
 Stoichiometry    C5H10O
 Framework group  C1[X(C5H10O)]
 Deg. of freedom    42
 Full point group                 C1      NOp   1
 Rotational constants (GHZ):      8.3725968      1.7810785      1.5250649
 Leave Link  202 at Tue Feb  7 16:27:38 2017, MaxMem=  1048576000 cpu:         0.0
 (Enter /mnt/data/applications/G09/g09/l120.exe)
 SvSCFP did not find density file   528.
 ONIOM: saving gridpoint 17
 ONIOM: restoring gridpoint  3
 ONIOM: restoring gridpoint  3 on chk file.
 ONIOM: generating point  3 -- low level on real system.
 Leave Link  120 at Tue Feb  7 16:27:38 2017, MaxMem=  1048576000 cpu:         0.0
 (Enter /mnt/data/applications/G09/g09/l301.exe)
 Standard basis: STO-3G (5D, 7F)
 Ernie: Thresh=  0.10000D-02 Tol=  0.10000D-05 Strict=F.
    40 basis functions,   120 primitive gaussians,    40 cartesian basis functions
    24 alpha electrons       24 beta electrons
       nuclear repulsion energy       235.1808489164 Hartrees.
 IExCor=    0 DFT=F Ex=HF Corr=None ExCW=0 ScaHFX=  1.000000
 ScaDFX=  1.000000  1.000000  1.000000  1.000000 ScalE2=  1.000000  1.000000
 IRadAn=      0 IRanWt=     -1 IRanGd=            0 ICorTp=0 IEmpDi=  4
 NAtoms=   16 NActive=   16 NUniq=   16 SFac= 1.00D+00 NAtFMM=   60 NAOKFM=F Big=F
 Integral buffers will be    131072 words long.
 Raffenetti 1 integral format.
 Two-electron integral symmetry is turned off.
 Leave Link  301 at Tue Feb  7 16:27:38 2017, MaxMem=  1048576000 cpu:         0.4
 (Enter /mnt/data/applications/G09/g09/l402.exe)
 External calculation of energy and first derivatives.
 Running external command "./sictwo_files/sictwo_g09d01 R"
         input file       "/scratch/Gau-7247.EIn"
         output file      "/scratch/Gau-7247.EOu"
         message file     "/scratch/Gau-7247.EMs"
         fchk file        "/scratch/Gau-7247.EFC"
         mat. el file     "/scratch/Gau-7247.EUF"

---------------------------- SICTWO Version 1.0 STARTED -----------------------------

MM calculations started
MM calculations finished ....
Information recovery

---------------------------- SICTWO Version 1.0 FINISHED -----------------------------

 Recovered energy= 0.255151456110E-02 dipole=     -0.669618443786     -1.325860255910     -0.201829765959
 Energy=    2.551514561E-03 NIter=   0.
 Dipole moment=      -0.669618      -1.325860      -0.201830
 Leave Link  402 at Tue Feb  7 16:27:41 2017, MaxMem=  1048576000 cpu:        18.9
 (Enter /mnt/data/applications/G09/g09/l716.exe)
 Dipole        =-6.69618444D-01-1.32586026D+00-2.01829766D-01
 Cartesian Forces:  Max     0.016206650 RMS     0.004479444
 Leave Link  716 at Tue Feb  7 16:27:41 2017, MaxMem=  1048576000 cpu:         0.2
 (Enter /mnt/data/applications/G09/g09/l120.exe)
 SvSCFP did not find density file   528.
 ONIOM: saving gridpoint  3
 ONIOM: restoring gridpoint  2
 ONIOM: restoring gridpoint  2 on chk file.
 ONIOM: generating point  2 -- high level on model system.
 Leave Link  120 at Tue Feb  7 16:27:41 2017, MaxMem=  1048576000 cpu:         0.0
 (Enter /mnt/data/applications/G09/g09/l301.exe)
 Standard basis: 6-31G(d) (6D, 7F)
 Ernie: Thresh=  0.10000D-02 Tol=  0.10000D-05 Strict=F.
    72 basis functions,   136 primitive gaussians,    72 cartesian basis functions
    16 alpha electrons       16 beta electrons
       nuclear repulsion energy       118.5779801258 Hartrees.
 IExCor=  402 DFT=T Ex+Corr=B3LYP ExCW=0 ScaHFX=  0.200000
 ScaDFX=  0.800000  0.720000  1.000000  0.810000 ScalE2=  1.000000  1.000000
 IRadAn=      0 IRanWt=     -1 IRanGd=            0 ICorTp=0 IEmpDi=  4
 NAtoms=   16 NActive=   10 NUniq=   10 SFac= 1.00D+00 NAtFMM=   60 NAOKFM=F Big=F
 Integral buffers will be    131072 words long.
 Raffenetti 2 integral format.
 Two-electron integral symmetry is turned off.
 Leave Link  301 at Tue Feb  7 16:27:42 2017, MaxMem=  1048576000 cpu:         0.4
 (Enter /mnt/data/applications/G09/g09/l302.exe)
 NPDir=0 NMtPBC=     1 NCelOv=     1 NCel=       1 NClECP=     1 NCelD=      1
         NCelK=      1 NCelE2=     1 NClLst=     1 CellRange=     0.0.
 One-electron integrals computed using PRISM.
 NBasis=    72 RedAO= T EigKep=  4.82D-03  NBF=    72
 NBsUse=    72 1.00D-06 EigRej= -1.00D+00 NBFU=    72
 Precomputing XC quadrature grid using
 IXCGrd= 4 IRadAn=           0 IRanWt=          -1 IRanGd=           0 AccXCQ= 0.00D+00.
 Generated NRdTot=       0 NPtTot=           0 NUsed=           0 NTot=          32
 NSgBfM=    72    72    72    72    72 MxSgAt=    10 MxSgA2=    10.
 Leave Link  302 at Tue Feb  7 16:27:42 2017, MaxMem=  1048576000 cpu:         1.9
 (Enter /mnt/data/applications/G09/g09/l303.exe)
 DipDrv:  MaxL=1.
 Leave Link  303 at Tue Feb  7 16:27:42 2017, MaxMem=  1048576000 cpu:         0.3
 (Enter /mnt/data/applications/G09/g09/l401.exe)
 Initial guess from the checkpoint file:  "C_3.chk"
 B after Tr=    -0.014168    0.192262    0.027038
         Rot=    0.999881   -0.001449    0.001823   -0.015255 Ang=  -1.77 deg.
 Guess basis will be translated and rotated to current coordinates.
 JPrj=2 DoOrth=T DoCkMO=T.
 Generating alternative initial guess.
 ExpMin= 1.61D-01 ExpMax= 5.48D+03 ExpMxC= 8.25D+02 IAcc=1 IRadAn=         1 AccDes= 0.00D+00
 Harris functional with IExCor=  402 and IRadAn=       1 diagonalized for initial guess.
 HarFok:  IExCor=  402 AccDes= 0.00D+00 IRadAn=         1 IDoV= 1 UseB2=F ITyADJ=14
 ICtDFT=  3500011 ScaDFX=  1.000000  1.000000  1.000000  1.000000
 FoFCou: FMM=F IPFlag=           0 FMFlag=      100000 FMFlg1=           0
         NFxFlg=           0 DoJE=T BraDBF=F KetDBF=T FulRan=T
         wScrn=  0.000000 ICntrl=     500 IOpCl=  0 I1Cent=   200000004 NGrid=           0
         NMat0=    1 NMatS0=      1 NMatT0=    0 NMatD0=    1 NMtDS0=    0 NMtDT0=    0
 Symmetry not used in FoFCou.
 Harris En= -193.200299627638    
 Leave Link  401 at Tue Feb  7 16:27:42 2017, MaxMem=  1048576000 cpu:         2.5
 (Enter /mnt/data/applications/G09/g09/l502.exe)
 Closed shell SCF:
 Using DIIS extrapolation, IDIIS=  1040.
 Two-electron integral symmetry not used.
 Keep R1 ints in memory in canonical form, NReq=4377494.
 IVT=       28618 IEndB=       28618 NGot=  1048576000 MDV=  1045092877
 LenX=  1045092877 LenY=  1045087252
 Requested convergence on RMS density matrix=1.00D-08 within 100 cycles.
 Requested convergence on MAX density matrix=1.00D-06.
 Requested convergence on             energy=1.00D-06.
 No special actions if energy rises.
 FoFCou: FMM=F IPFlag=           0 FMFlag=           0 FMFlg1=           0
         NFxFlg=           0 DoJE=F BraDBF=F KetDBF=F FulRan=T
         wScrn=  0.000000 ICntrl=     600 IOpCl=  0 I1Cent=           0 NGrid=           0
         NMat0=    1 NMatS0=   2628 NMatT0=    0 NMatD0=    1 NMtDS0=    0 NMtDT0=    0
 Symmetry not used in FoFCou.
 Integral accuracy reduced to 1.0D-05 until final iterations.

 Cycle   1  Pass 0  IDiag  1:
 E= -193.150819047390    
 DIIS: error= 3.74D-03 at cycle   1 NSaved=   1.
 NSaved= 1 IEnMin= 1 EnMin= -193.150819047390     IErMin= 1 ErrMin= 3.74D-03
 ErrMax= 3.74D-03  0.00D+00 EMaxC= 1.00D-01 BMatC= 1.94D-03 BMatP= 1.94D-03
 IDIUse=3 WtCom= 9.63D-01 WtEn= 3.74D-02
 Coeff-Com:  0.100D+01
 Coeff-En:   0.100D+01
 Coeff:      0.100D+01
 Gap=     1.910 Goal=   None    Shift=    0.000
 GapD=    1.910 DampG=2.000 DampE=1.000 DampFc=2.0000 IDamp=-1.
 RMSDP=1.02D-03 MaxDP=1.04D-02              OVMax= 1.62D-02

 Cycle   2  Pass 0  IDiag  1:
 E= -193.153347569291     Delta-E=       -0.002528521901 Rises=F Damp=F
 DIIS: error= 2.65D-03 at cycle   2 NSaved=   2.
 NSaved= 2 IEnMin= 2 EnMin= -193.153347569291     IErMin= 2 ErrMin= 2.65D-03
 ErrMax= 2.65D-03  0.00D+00 EMaxC= 1.00D-01 BMatC= 6.38D-04 BMatP= 1.94D-03
 IDIUse=3 WtCom= 9.73D-01 WtEn= 2.65D-02
 Coeff-Com:  0.299D+00 0.701D+00
 Coeff-En:   0.000D+00 0.100D+01
 Coeff:      0.291D+00 0.709D+00
 Gap=     0.228 Goal=   None    Shift=    0.000
 RMSDP=5.61D-04 MaxDP=9.49D-03 DE=-2.53D-03 OVMax= 1.50D-02

 Cycle   3  Pass 0  IDiag  1:
 E= -193.153409521542     Delta-E=       -0.000061952251 Rises=F Damp=F
 DIIS: error= 3.15D-03 at cycle   3 NSaved=   3.
 NSaved= 3 IEnMin= 3 EnMin= -193.153409521542     IErMin= 2 ErrMin= 2.65D-03
 ErrMax= 3.15D-03  0.00D+00 EMaxC= 1.00D-01 BMatC= 5.96D-04 BMatP= 6.38D-04
 IDIUse=3 WtCom= 9.68D-01 WtEn= 3.15D-02
 Coeff-Com:  0.131D-01 0.488D+00 0.498D+00
 Coeff-En:   0.000D+00 0.475D+00 0.525D+00
 Coeff:      0.127D-01 0.488D+00 0.499D+00
 Gap=     0.232 Goal=   None    Shift=    0.000
 RMSDP=3.43D-04 MaxDP=7.07D-03 DE=-6.20D-05 OVMax= 1.16D-02

 Cycle   4  Pass 0  IDiag  1:
 E= -193.153841641206     Delta-E=       -0.000432119664 Rises=F Damp=F
 DIIS: error= 1.18D-03 at cycle   4 NSaved=   4.
 NSaved= 4 IEnMin= 4 EnMin= -193.153841641206     IErMin= 4 ErrMin= 1.18D-03
 ErrMax= 1.18D-03  0.00D+00 EMaxC= 1.00D-01 BMatC= 6.74D-05 BMatP= 5.96D-04
 IDIUse=3 WtCom= 9.88D-01 WtEn= 1.18D-02
 Coeff-Com: -0.198D-01 0.247D+00 0.331D+00 0.442D+00
 Coeff-En:   0.000D+00 0.000D+00 0.566D-01 0.943D+00
 Coeff:     -0.196D-01 0.244D+00 0.328D+00 0.448D+00
 Gap=     0.230 Goal=   None    Shift=    0.000
 RMSDP=7.84D-05 MaxDP=1.55D-03 DE=-4.32D-04 OVMax= 2.50D-03

 Cycle   5  Pass 0  IDiag  1:
 E= -193.153895498875     Delta-E=       -0.000053857669 Rises=F Damp=F
 DIIS: error= 5.29D-05 at cycle   5 NSaved=   5.
 NSaved= 5 IEnMin= 5 EnMin= -193.153895498875     IErMin= 5 ErrMin= 5.29D-05
 ErrMax= 5.29D-05  0.00D+00 EMaxC= 1.00D-01 BMatC= 2.51D-07 BMatP= 6.74D-05
 IDIUse=1 WtCom= 1.00D+00 WtEn= 0.00D+00
 Coeff-Com: -0.476D-02 0.320D-01 0.591D-01 0.966D-01 0.817D+00
 Coeff:     -0.476D-02 0.320D-01 0.591D-01 0.966D-01 0.817D+00
 Gap=     0.230 Goal=   None    Shift=    0.000
 RMSDP=1.14D-05 MaxDP=1.15D-04 DE=-5.39D-05 OVMax= 1.73D-04

 Cycle   6  Pass 0  IDiag  1:
 E= -193.153895760301     Delta-E=       -0.000000261426 Rises=F Damp=F
 DIIS: error= 7.08D-06 at cycle   6 NSaved=   6.
 NSaved= 6 IEnMin= 6 EnMin= -193.153895760301     IErMin= 6 ErrMin= 7.08D-06
 ErrMax= 7.08D-06  0.00D+00 EMaxC= 1.00D-01 BMatC= 6.10D-09 BMatP= 2.51D-07
 IDIUse=1 WtCom= 1.00D+00 WtEn= 0.00D+00
 Coeff-Com: -0.353D-03-0.114D-02 0.126D-02 0.590D-02 0.173D+00 0.821D+00
 Coeff:     -0.353D-03-0.114D-02 0.126D-02 0.590D-02 0.173D+00 0.821D+00
 Gap=     0.230 Goal=   None    Shift=    0.000
 RMSDP=1.68D-06 MaxDP=1.70D-05 DE=-2.61D-07 OVMax= 2.94D-05

 Initial convergence to 1.0D-05 achieved.  Increase integral accuracy.
 Cycle   7  Pass 1  IDiag  1:
 E= -193.153869697426     Delta-E=        0.000026062875 Rises=F Damp=F
 DIIS: error= 7.02D-06 at cycle   1 NSaved=   1.
 NSaved= 1 IEnMin= 1 EnMin= -193.153869697426     IErMin= 1 ErrMin= 7.02D-06
 ErrMax= 7.02D-06  0.00D+00 EMaxC= 1.00D-01 BMatC= 5.21D-09 BMatP= 5.21D-09
 IDIUse=1 WtCom= 1.00D+00 WtEn= 0.00D+00
 Coeff-Com:  0.100D+01
 Coeff:      0.100D+01
 Gap=     0.230 Goal=   None    Shift=    0.000
 RMSDP=1.68D-06 MaxDP=1.70D-05 DE= 2.61D-05 OVMax= 2.13D-05

 Cycle   8  Pass 1  IDiag  1:
 E= -193.153869702790     Delta-E=       -0.000000005365 Rises=F Damp=F
 DIIS: error= 4.57D-06 at cycle   2 NSaved=   2.
 NSaved= 2 IEnMin= 2 EnMin= -193.153869702790     IErMin= 2 ErrMin= 4.57D-06
 ErrMax= 4.57D-06  0.00D+00 EMaxC= 1.00D-01 BMatC= 1.22D-09 BMatP= 5.21D-09
 IDIUse=1 WtCom= 1.00D+00 WtEn= 0.00D+00
 Coeff-Com:  0.248D+00 0.752D+00
 Coeff:      0.248D+00 0.752D+00
 Gap=     0.230 Goal=   None    Shift=    0.000
 RMSDP=1.02D-06 MaxDP=1.67D-05 DE=-5.36D-09 OVMax= 2.50D-05

 Cycle   9  Pass 1  IDiag  1:
 E= -193.153869702858     Delta-E=       -0.000000000068 Rises=F Damp=F
 DIIS: error= 4.83D-06 at cycle   3 NSaved=   3.
 NSaved= 3 IEnMin= 3 EnMin= -193.153869702858     IErMin= 2 ErrMin= 4.57D-06
 ErrMax= 4.83D-06  0.00D+00 EMaxC= 1.00D-01 BMatC= 1.31D-09 BMatP= 1.22D-09
 IDIUse=1 WtCom= 1.00D+00 WtEn= 0.00D+00
 Coeff-Com:  0.206D-01 0.505D+00 0.475D+00
 Coeff:      0.206D-01 0.505D+00 0.475D+00
 Gap=     0.230 Goal=   None    Shift=    0.000
 RMSDP=4.90D-07 MaxDP=1.06D-05 DE=-6.79D-11 OVMax= 1.66D-05

 Cycle  10  Pass 1  IDiag  1:
 E= -193.153869703745     Delta-E=       -0.000000000887 Rises=F Damp=F
 DIIS: error= 1.62D-06 at cycle   4 NSaved=   4.
 NSaved= 4 IEnMin= 4 EnMin= -193.153869703745     IErMin= 4 ErrMin= 1.62D-06
 ErrMax= 1.62D-06  0.00D+00 EMaxC= 1.00D-01 BMatC= 1.27D-10 BMatP= 1.22D-09
 IDIUse=1 WtCom= 1.00D+00 WtEn= 0.00D+00
 Coeff-Com: -0.139D-01 0.243D+00 0.305D+00 0.466D+00
 Coeff:     -0.139D-01 0.243D+00 0.305D+00 0.466D+00
 Gap=     0.230 Goal=   None    Shift=    0.000
 RMSDP=1.27D-07 MaxDP=2.23D-06 DE=-8.87D-10 OVMax= 3.55D-06

 Cycle  11  Pass 1  IDiag  1:
 E= -193.153869703855     Delta-E=       -0.000000000110 Rises=F Damp=F
 DIIS: error= 9.09D-08 at cycle   5 NSaved=   5.
 NSaved= 5 IEnMin= 5 EnMin= -193.153869703855     IErMin= 5 ErrMin= 9.09D-08
 ErrMax= 9.09D-08  0.00D+00 EMaxC= 1.00D-01 BMatC= 7.05D-13 BMatP= 1.27D-10
 IDIUse=1 WtCom= 1.00D+00 WtEn= 0.00D+00
 Coeff-Com: -0.402D-02 0.509D-01 0.651D-01 0.138D+00 0.750D+00
 Coeff:     -0.402D-02 0.509D-01 0.651D-01 0.138D+00 0.750D+00
 Gap=     0.230 Goal=   None    Shift=    0.000
 RMSDP=1.49D-08 MaxDP=1.42D-07 DE=-1.10D-10 OVMax= 2.45D-07

 Cycle  12  Pass 1  IDiag  1:
 E= -193.153869703856     Delta-E=       -0.000000000001 Rises=F Damp=F
 DIIS: error= 2.62D-08 at cycle   6 NSaved=   6.
 NSaved= 6 IEnMin= 6 EnMin= -193.153869703856     IErMin= 6 ErrMin= 2.62D-08
 ErrMax= 2.62D-08  0.00D+00 EMaxC= 1.00D-01 BMatC= 5.39D-14 BMatP= 7.05D-13
 IDIUse=1 WtCom= 1.00D+00 WtEn= 0.00D+00
 Coeff-Com: -0.917D-03 0.848D-02 0.110D-01 0.326D-01 0.283D+00 0.666D+00
 Coeff:     -0.917D-03 0.848D-02 0.110D-01 0.326D-01 0.283D+00 0.666D+00
 Gap=     0.230 Goal=   None    Shift=    0.000
 RMSDP=4.28D-09 MaxDP=6.19D-08 DE=-1.14D-12 OVMax= 9.24D-08

 SCF Done:  E(RB3LYP) =  -193.153869704     A.U. after   12 cycles
            NFock= 12  Conv=0.43D-08     -V/T= 2.0097
 KE= 1.912940082555D+02 PE=-6.871162078573D+02 EE= 1.840903497721D+02
 Leave Link  502 at Tue Feb  7 16:27:44 2017, MaxMem=  1048576000 cpu:        11.8
 (Enter /mnt/data/applications/G09/g09/l701.exe)
 Compute integral first derivatives.
 ... and contract with generalized density number  0.
 Leave Link  701 at Tue Feb  7 16:27:44 2017, MaxMem=  1048576000 cpu:         1.1
 (Enter /mnt/data/applications/G09/g09/l702.exe)
 L702 exits ... SP integral derivatives will be done elsewhere.
 Leave Link  702 at Tue Feb  7 16:27:44 2017, MaxMem=  1048576000 cpu:         0.2
 (Enter /mnt/data/applications/G09/g09/l703.exe)
 Compute integral first derivatives, UseDBF=F ICtDFT=           0.
 Integral derivatives from FoFJK, PRISM(SPDF).
 Calling FoFJK, ICntrl=      2127 FMM=F ISym2X=0 I1Cent= 0 IOpClX= 0 NMat=1 NMatS=1 NMatT=0.
 FoFJK:  IHMeth= 1 ICntrl=    2127 DoSepK=F KAlg= 0 I1Cent=   0 FoldK=F
 IRaf=         0 NMat=   1 IRICut=       1 DoRegI=T DoRafI=F ISym2E= 0.
 FoFCou: FMM=F IPFlag=           0 FMFlag=      100000 FMFlg1=         800
         NFxFlg=           0 DoJE=F BraDBF=F KetDBF=F FulRan=T
         wScrn=  0.000000 ICntrl=    2127 IOpCl=  0 I1Cent=           0 NGrid=           0
         NMat0=    1 NMatS0=      1 NMatT0=    0 NMatD0=    1 NMtDS0=    0 NMtDT0=    0
 Symmetry not used in FoFCou.
 Leave Link  703 at Tue Feb  7 16:27:45 2017, MaxMem=  1048576000 cpu:         4.5
 (Enter /mnt/data/applications/G09/g09/l716.exe)
 Dipole        =-5.21313844D-01-9.43906908D-01-1.51541743D-01
 Cartesian Forces:  Max     0.013056154 RMS     0.003472799
 Leave Link  716 at Tue Feb  7 16:27:45 2017, MaxMem=  1048576000 cpu:         0.2
 (Enter /mnt/data/applications/G09/g09/l120.exe)
 SvSCFP is copying densities from files   528 and   530 to   603.
 ONIOM: saving gridpoint  2
 ONIOM: restoring gridpoint  1
 ONIOM: restoring gridpoint  1 on chk file.
 ONIOM: generating point  1 -- low level on model system.
 Leave Link  120 at Tue Feb  7 16:27:45 2017, MaxMem=  1048576000 cpu:         0.2
 (Enter /mnt/data/applications/G09/g09/l301.exe)
 Standard basis: STO-3G (5D, 7F)
 Ernie: Thresh=  0.10000D-02 Tol=  0.10000D-05 Strict=F.
    26 basis functions,    78 primitive gaussians,    26 cartesian basis functions
    16 alpha electrons       16 beta electrons
       nuclear repulsion energy       118.5779801258 Hartrees.
 IExCor=    0 DFT=F Ex=HF Corr=None ExCW=0 ScaHFX=  1.000000
 ScaDFX=  1.000000  1.000000  1.000000  1.000000 ScalE2=  1.000000  1.000000
 IRadAn=      0 IRanWt=     -1 IRanGd=            0 ICorTp=0 IEmpDi=  4
 NAtoms=   16 NActive=   10 NUniq=   10 SFac= 1.00D+00 NAtFMM=   60 NAOKFM=F Big=F
 Integral buffers will be    131072 words long.
 Raffenetti 1 integral format.
 Two-electron integral symmetry is turned off.
 Leave Link  301 at Tue Feb  7 16:27:45 2017, MaxMem=  1048576000 cpu:         0.3
 (Enter /mnt/data/applications/G09/g09/l402.exe)
 External calculation of energy and first derivatives.
 Running external command "./sictwo_files/sictwo_g09d01 M"
         input file       "/scratch/Gau-7247.EIn"
         output file      "/scratch/Gau-7247.EOu"
         message file     "/scratch/Gau-7247.EMs"
         fchk file        "/scratch/Gau-7247.EFC"
         mat. el file     "/scratch/Gau-7247.EUF"

---------------------------- SICTWO Version 1.0 STARTED -----------------------------

MM calculations started
MM calculations finished ....
Information recovery

---------------------------- SICTWO Version 1.0 FINISHED -----------------------------

 Recovered energy= 0.568740260890E-02 dipole=     -0.669618443786     -1.325860255910     -0.201829765959
 Energy=    5.687402609E-03 NIter=   0.
 Dipole moment=      -0.669618      -1.325860      -0.201830
 Leave Link  402 at Tue Feb  7 16:27:48 2017, MaxMem=  1048576000 cpu:        16.8
 (Enter /mnt/data/applications/G09/g09/l716.exe)
 Dipole        =-6.69618444D-01-1.32586026D+00-2.01829766D-01
 Cartesian Forces:  Max     0.017798289 RMS     0.004484283
 Leave Link  716 at Tue Feb  7 16:27:48 2017, MaxMem=  1048576000 cpu:         0.2
 (Enter /mnt/data/applications/G09/g09/l120.exe)
 SvSCFP did not find density file   528.
 ONIOM: saving gridpoint  1
 ONIOM: restoring gridpoint  3
 ONIOM: calculating energy.
 ONIOM: gridpoint  1 method:  low   system:  model energy:     0.005687402609
 ONIOM: gridpoint  2 method:  high  system:  model energy:  -193.153869703856
 ONIOM: gridpoint  3 method:  low   system:  real  energy:     0.002551514561
 ONIOM: extrapolated energy =    -193.157005591904
 ONIOM: calculating first derivatives.
 ONIOM: calculating electric field derivatives.
 ONIOM: Integrating ONIOM file  4 number   619
 ONIOM: Dipole        =-5.21313844D-01-9.43906908D-01-1.51541743D-01
 ONIOM: Dipole moment (Debye):
    X=    -1.3250    Y=    -2.3992    Z=    -0.3852  Tot=     2.7677
 ONIOM: Integrating ONIOM file  5 number   695
 Leave Link  120 at Tue Feb  7 16:27:48 2017, MaxMem=  1048576000 cpu:         0.0
 (Enter /mnt/data/applications/G09/g09/l716.exe)
 Dipole        =-5.21313844D-01-9.43906908D-01-1.51541743D-01
 -------------------------------------------------------------------
 Center     Atomic                   Forces (Hartrees/Bohr)
 Number     Number              X              Y              Z
 -------------------------------------------------------------------
      1        6           0.006892129    0.010445178    0.001564750
      2        8          -0.002588888   -0.007521259   -0.001087700
      3        6           0.002682934   -0.006312550    0.000825827
      4        1          -0.001388680    0.000823562   -0.000618934
      5        1          -0.001973906    0.000416961   -0.000264049
      6        1          -0.001439446    0.001212622   -0.000114122
      7        6           0.006504755    0.006675136   -0.000437229
      8        1          -0.001577387   -0.002061519   -0.000125072
      9        1          -0.001443069   -0.001973778   -0.000031185
     10        6          -0.005829343   -0.010190874   -0.000924440
     11        1           0.000699937    0.002842333   -0.000657181
     12        1           0.000798265    0.002653181    0.001319760
     13        6          -0.004053729    0.007321842    0.001331988
     14        1          -0.000069403   -0.001630262   -0.001900454
     15        1           0.002632436   -0.000615522   -0.000262518
     16        1           0.000153311   -0.002085052    0.001380562
 -------------------------------------------------------------------
[...]
 Leave Link  716 at Tue Feb  7 16:30:30 2017, MaxMem=  1048576000 cpu:         0.2
 (Enter /mnt/data/applications/G09/g09/l103.exe)

 GradGradGradGradGradGradGradGradGradGradGradGradGradGradGradGradGradGrad
 Berny optimization.
 Using GEDIIS/GDIIS optimizer.
 FormGI is forming the generalized inverse of G from B-inverse, IUseBI=4.
 GSVD:  received Info=                   1 from GESDD.
 Internal  Forces:  Max     0.000005041 RMS     0.000001040
 Search for a local minimum.
 Step number  18 out of a maximum of   82
 All quantities printed in internal units (Hartrees-Bohrs-Radians)
 RMS Force = .10399D-05 SwitMx=.10000D-02 MixMth= 2
 Mixed Optimization -- En-DIIS/RFO-DIIS
 Swapping is turned off.
 Update second derivatives using D2CorX and points    8   11   12   13   14
                                                     15   16   17   18
 DE=  9.67D-09 DEPred=-4.11D-09 R=-2.35D+00
 Trust test=-2.35D+00 RLast= 4.21D-03 DXMaxT set to 1.21D-01
 ITU= -1 -1  1  1  1  1  0  1  1  0 -1  1  0 -1 -1  1  1  0
     Eigenvalues ---    0.00018   0.00185   0.00246   0.00279   0.03046
     Eigenvalues ---    0.03583   0.03863   0.04289   0.04926   0.05433
     Eigenvalues ---    0.05562   0.06365   0.06620   0.08321   0.09176
     Eigenvalues ---    0.12108   0.13211   0.15266   0.15592   0.16001
     Eigenvalues ---    0.16155   0.16332   0.16842   0.21799   0.22069
     Eigenvalues ---    0.24655   0.25598   0.27411   0.28451   0.29887
     Eigenvalues ---    0.31892   0.35698   0.36737   0.37125   0.37225
     Eigenvalues ---    0.37231   0.37232   0.37235   0.37271   0.37469
     Eigenvalues ---    0.38781   0.90218
 En-DIIS/RFO-DIIS IScMMF=        0 using points:    18   17   16   15   14
 RFO step:  Lambda=-1.31792152D-10.
 NNeg= 0 NP= 5 Switch=  2.50D-03 Rises=F DC=  3.42D-06 SmlDif=  1.00D-05
 RMS Error=  0.2326783866D-05 NUsed= 5 EDIIS=F
 DidBck=F Rises=F RFO-DIIS coefs:    1.08882   -0.08008   -0.01222    0.01192   -0.00844
 Iteration  1 RMS(Cart)=  0.00004229 RMS(Int)=  0.00000003
 Iteration  2 RMS(Cart)=  0.00000000 RMS(Int)=  0.00000003
 ITry= 1 IFail=0 DXMaxC= 1.76D-04 DCOld= 1.00D+10 DXMaxT= 1.21D-01 DXLimC= 3.00D+00 Rises=F
 Variable       Old X    -DE/DX   Delta X   Delta X   Delta X     New X
                                 (Linear)    (Quad)   (Total)
    R1        2.29633  -0.00001   0.00000   0.00000   0.00000   2.29632
    R2        2.87765   0.00000   0.00000   0.00000   0.00000   2.87765
    R3        2.89426   0.00000   0.00000   0.00001   0.00001   2.89427
    R4        2.07360   0.00000   0.00000   0.00000   0.00000   2.07360
    R5        2.07357   0.00000   0.00000   0.00000   0.00000   2.07357
    R6        2.06298   0.00000   0.00000   0.00000   0.00000   2.06297
    R7        2.07781   0.00000   0.00000   0.00000   0.00000   2.07780
    R8        2.07784   0.00000   0.00000   0.00000   0.00000   2.07784
    R9        2.87563   0.00000   0.00000   0.00000   0.00000   2.87564
   R10        2.07204   0.00000   0.00000   0.00000   0.00000   2.07204
   R11        2.07205   0.00000   0.00000   0.00000   0.00000   2.07205
   R12        2.87211   0.00000   0.00000   0.00000   0.00000   2.87211
   R13        2.06866   0.00000   0.00000   0.00000   0.00000   2.06867
   R14        2.06830   0.00000   0.00000   0.00000   0.00000   2.06830
   R15        2.06867   0.00000   0.00000   0.00000   0.00000   2.06867
    A1        2.11624   0.00000   0.00000   0.00001   0.00001   2.11625
    A2        2.15756   0.00000   0.00000   0.00000   0.00000   2.15756
    A3        2.00938   0.00000   0.00000  -0.00001  -0.00001   2.00937
    A4        1.93057   0.00000  -0.00001   0.00000  -0.00001   1.93056
    A5        1.93092   0.00000   0.00001   0.00002   0.00002   1.93094
    A6        1.91405   0.00000   0.00000  -0.00001  -0.00001   1.91405
    A7        1.86468   0.00000   0.00000  -0.00002  -0.00002   1.86467
    A8        1.91125   0.00000   0.00000   0.00000  -0.00001   1.91124
    A9        1.91174   0.00000   0.00000   0.00001   0.00002   1.91175
   A10        1.89226   0.00000   0.00000   0.00002   0.00002   1.89228
   A11        1.89237   0.00000   0.00000   0.00000   0.00000   1.89237
   A12        1.97276   0.00000   0.00000  -0.00001  -0.00001   1.97275
   A13        1.84250   0.00000   0.00000   0.00000   0.00000   1.84250
   A14        1.92936   0.00000   0.00000   0.00000   0.00000   1.92936
   A15        1.92946   0.00000   0.00000  -0.00001  -0.00001   1.92945
   A16        1.91826   0.00000   0.00000   0.00000   0.00000   1.91825
   A17        1.91821   0.00000   0.00000  -0.00001   0.00000   1.91821
   A18        1.94799   0.00000   0.00000   0.00000   0.00000   1.94799
   A19        1.86343   0.00000   0.00000   0.00000   0.00001   1.86343
   A20        1.90702   0.00000   0.00000   0.00000   0.00000   1.90701
   A21        1.90695   0.00000   0.00000   0.00000   0.00000   1.90695
   A22        1.93738   0.00000   0.00000   0.00000   0.00000   1.93738
   A23        1.92450   0.00000   0.00000   0.00000   0.00000   1.92450
   A24        1.93738   0.00000   0.00000   0.00000   0.00000   1.93738
   A25        1.88624   0.00000   0.00000   0.00000   0.00000   1.88624
   A26        1.89046   0.00000   0.00000   0.00000   0.00000   1.89046
   A27        1.88622   0.00000   0.00000   0.00000   0.00000   1.88622
    D1        2.10568   0.00000  -0.00010  -0.00003  -0.00013   2.10554
    D2       -2.11477   0.00000  -0.00010  -0.00004  -0.00014  -2.11492
    D3       -0.00413   0.00000  -0.00009  -0.00002  -0.00012  -0.00425
    D4       -1.03590   0.00000  -0.00010  -0.00002  -0.00012  -1.03602
    D5        1.02684   0.00000  -0.00010  -0.00004  -0.00013   1.02670
    D6        3.13748   0.00000  -0.00009  -0.00002  -0.00010   3.13738
    D7        2.14652   0.00000   0.00000   0.00003   0.00003   2.14655
    D8       -2.14442   0.00000   0.00000   0.00004   0.00004  -2.14438
    D9        0.00115   0.00000   0.00000   0.00002   0.00002   0.00117
   D10       -0.99509   0.00000  -0.00001   0.00003   0.00002  -0.99507
   D11        0.99715   0.00000  -0.00001   0.00003   0.00003   0.99718
   D12       -3.14046   0.00000  -0.00001   0.00001   0.00001  -3.14045
   D13       -1.02337   0.00000   0.00000   0.00001   0.00001  -1.02336
   D14        1.02254   0.00000   0.00000   0.00001   0.00001   1.02255
   D15        3.14112   0.00000   0.00000   0.00001   0.00002   3.14114
   D16        3.13519   0.00000   0.00000  -0.00001  -0.00001   3.13518
   D17       -1.10209   0.00000   0.00000  -0.00001   0.00000  -1.10209
   D18        1.01649   0.00000   0.00000   0.00000   0.00000   1.01649
   D19        1.10147   0.00000   0.00000   0.00000   0.00000   1.10147
   D20       -3.13580   0.00000   0.00000   0.00000   0.00000  -3.13580
   D21       -1.01722   0.00000   0.00000   0.00000   0.00000  -1.01722
   D22        1.05201   0.00000   0.00000  -0.00002  -0.00002   1.05199
   D23       -3.14139   0.00000   0.00000  -0.00003  -0.00002  -3.14141
   D24       -1.05163   0.00000   0.00000  -0.00002  -0.00002  -1.05165
   D25       -1.07319   0.00000   0.00000  -0.00002  -0.00002  -1.07321
   D26        1.01660   0.00000   0.00001  -0.00002  -0.00002   1.01658
   D27        3.10636   0.00000   0.00000  -0.00002  -0.00002   3.10634
   D28       -3.10608   0.00000   0.00000  -0.00003  -0.00002  -3.10610
   D29       -1.01629   0.00000   0.00000  -0.00003  -0.00002  -1.01631
   D30        1.07347   0.00000   0.00000  -0.00003  -0.00002   1.07345
         Item               Value     Threshold  Converged?
 Maximum Force            0.000005     0.000450     YES
 RMS     Force            0.000001     0.000300     YES
 Maximum Displacement     0.000176     0.001800     YES
 RMS     Displacement     0.000042     0.001200     YES
 Predicted change in Energy=-1.939832D-10
 Optimization completed.
    -- Stationary point found.
                           ----------------------------
                           !   Optimized Parameters   !
                           ! (Angstroms and Degrees)  !
 --------------------------                            --------------------------
 ! Name  Definition              Value          Derivative Info.                !
 --------------------------------------------------------------------------------
 ! R1    R(1,2)                  1.2152         -DE/DX =    0.0                 !
 ! R2    R(1,3)                  1.5228         -DE/DX =    0.0                 !
 ! R3    R(1,7)                  1.5316         -DE/DX =    0.0                 !
 ! R4    R(3,4)                  1.0973         -DE/DX =    0.0                 !
 ! R5    R(3,5)                  1.0973         -DE/DX =    0.0                 !
 ! R6    R(3,6)                  1.0917         -DE/DX =    0.0                 !
 ! R7    R(7,8)                  1.0995         -DE/DX =    0.0                 !
 ! R8    R(7,9)                  1.0995         -DE/DX =    0.0                 !
 ! R9    R(7,10)                 1.5217         -DE/DX =    0.0                 !
 ! R10   R(10,11)                1.0965         -DE/DX =    0.0                 !
 ! R11   R(10,12)                1.0965         -DE/DX =    0.0                 !
 ! R12   R(10,13)                1.5199         -DE/DX =    0.0                 !
 ! R13   R(13,14)                1.0947         -DE/DX =    0.0                 !
 ! R14   R(13,15)                1.0945         -DE/DX =    0.0                 !
 ! R15   R(13,16)                1.0947         -DE/DX =    0.0                 !
 ! A1    A(2,1,3)              121.2518         -DE/DX =    0.0                 !
 ! A2    A(2,1,7)              123.6192         -DE/DX =    0.0                 !
 ! A3    A(3,1,7)              115.129          -DE/DX =    0.0                 !
 ! A4    A(1,3,4)              110.6134         -DE/DX =    0.0                 !
 ! A5    A(1,3,5)              110.6334         -DE/DX =    0.0                 !
 ! A6    A(1,3,6)              109.6672         -DE/DX =    0.0                 !
 ! A7    A(4,3,5)              106.8385         -DE/DX =    0.0                 !
 ! A8    A(4,3,6)              109.5063         -DE/DX =    0.0                 !
 ! A9    A(5,3,6)              109.5345         -DE/DX =    0.0                 !
 ! A10   A(1,7,8)              108.4186         -DE/DX =    0.0                 !
 ! A11   A(1,7,9)              108.4248         -DE/DX =    0.0                 !
 ! A12   A(1,7,10)             113.0307         -DE/DX =    0.0                 !
 ! A13   A(8,7,9)              105.5674         -DE/DX =    0.0                 !
 ! A14   A(8,7,10)             110.5439         -DE/DX =    0.0                 !
 ! A15   A(9,7,10)             110.5497         -DE/DX =    0.0                 !
 ! A16   A(7,10,11)            109.908          -DE/DX =    0.0                 !
 ! A17   A(7,10,12)            109.9054         -DE/DX =    0.0                 !
 ! A18   A(7,10,13)            111.6118         -DE/DX =    0.0                 !
 ! A19   A(11,10,12)           106.7665         -DE/DX =    0.0                 !
 ! A20   A(11,10,13)           109.264          -DE/DX =    0.0                 !
 ! A21   A(12,10,13)           109.2602         -DE/DX =    0.0                 !
 ! A22   A(10,13,14)           111.0037         -DE/DX =    0.0                 !
 ! A23   A(10,13,15)           110.2656         -DE/DX =    0.0                 !
 ! A24   A(10,13,16)           111.0036         -DE/DX =    0.0                 !
 ! A25   A(14,13,15)           108.0734         -DE/DX =    0.0                 !
 ! A26   A(14,13,16)           108.3155         -DE/DX =    0.0                 !
 ! A27   A(15,13,16)           108.0722         -DE/DX =    0.0                 !
 ! D1    D(2,1,3,4)            120.6465         -DE/DX =    0.0                 !
 ! D2    D(2,1,3,5)           -121.1676         -DE/DX =    0.0                 !
 ! D3    D(2,1,3,6)             -0.2366         -DE/DX =    0.0                 !
 ! D4    D(7,1,3,4)            -59.3526         -DE/DX =    0.0                 !
 ! D5    D(7,1,3,5)             58.8333         -DE/DX =    0.0                 !
 ! D6    D(7,1,3,6)            179.7643         -DE/DX =    0.0                 !
 ! D7    D(2,1,7,8)            122.9864         -DE/DX =    0.0                 !
 ! D8    D(2,1,7,9)           -122.8663         -DE/DX =    0.0                 !
 ! D9    D(2,1,7,10)             0.066          -DE/DX =    0.0                 !
 ! D10   D(3,1,7,8)            -57.0146         -DE/DX =    0.0                 !
 ! D11   D(3,1,7,9)             57.1327         -DE/DX =    0.0                 !
 ! D12   D(3,1,7,10)          -179.935          -DE/DX =    0.0                 !
 ! D13   D(1,7,10,11)          -58.6347         -DE/DX =    0.0                 !
 ! D14   D(1,7,10,12)           58.5872         -DE/DX =    0.0                 !
 ! D15   D(1,7,10,13)          179.973          -DE/DX =    0.0                 !
 ! D16   D(8,7,10,11)          179.6331         -DE/DX =    0.0                 !
 ! D17   D(8,7,10,12)          -63.1451         -DE/DX =    0.0                 !
 ! D18   D(8,7,10,13)           58.2407         -DE/DX =    0.0                 !
 ! D19   D(9,7,10,11)           63.1099         -DE/DX =    0.0                 !
 ! D20   D(9,7,10,12)         -179.6683         -DE/DX =    0.0                 !
 ! D21   D(9,7,10,13)          -58.2825         -DE/DX =    0.0                 !
 ! D22   D(7,10,13,14)          60.2757         -DE/DX =    0.0                 !
 ! D23   D(7,10,13,15)        -179.9882         -DE/DX =    0.0                 !
 ! D24   D(7,10,13,16)         -60.2537         -DE/DX =    0.0                 !
 ! D25   D(11,10,13,14)        -61.4894         -DE/DX =    0.0                 !
 ! D26   D(11,10,13,15)         58.2467         -DE/DX =    0.0                 !
 ! D27   D(11,10,13,16)        177.9812         -DE/DX =    0.0                 !
 ! D28   D(12,10,13,14)       -177.965          -DE/DX =    0.0                 !
 ! D29   D(12,10,13,15)        -58.2289         -DE/DX =    0.0                 !
 ! D30   D(12,10,13,16)         61.5056         -DE/DX =    0.0                 !
 --------------------------------------------------------------------------------
 GradGradGradGradGradGradGradGradGradGradGradGradGradGradGradGradGradGrad

 Largest change from initial coordinates is atom    4       0.216 Angstoms.
 Leave Link  103 at Tue Feb  7 16:30:30 2017, MaxMem=  1048576000 cpu:         0.1
 (Enter /mnt/data/applications/G09/g09/l202.exe)
                          Input orientation:                          
 ---------------------------------------------------------------------
 Center     Atomic      Atomic             Coordinates (Angstroms)
 Number     Number       Type             X           Y           Z
 ---------------------------------------------------------------------
      1          6    10061002       -2.349574    0.450731    0.084013
      2          8    10081002       -1.805073    1.497544    0.374397
      3          6    10061003       -3.867356    0.334804    0.041946
      4          1    10011000       -4.204351    0.035419   -0.958490
      5          1    10011000       -4.215617   -0.437710    0.739065
      6          1    10011000       -4.316569    1.294097    0.306008
      7          6    10061003       -1.589386   -0.832954   -0.262395
      8          1    10011000       -1.915727   -1.626304    0.425398
      9          1    10011000       -1.902609   -1.162952   -1.263391
     10          6    10061003       -0.078191   -0.664035   -0.204212
     11          1    10011000        0.236357    0.124437   -0.898207
     12          1    10011000        0.222951   -0.340750    0.799316
     13          6    10061003        0.643272   -1.955627   -0.552402
     14          1    10011000        0.390300   -2.285655   -1.565039
     15          1    10011000        1.726884   -1.809587   -0.503636
     16          1    10011000        0.376517   -2.754773    0.146569
 ---------------------------------------------------------------------
                    Distance matrix (angstroms):
                    1          2          3          4          5
     1  C    0.000000
     2  O    1.215163   0.000000
     3  C    1.522785   2.390712   0.000000
     4  H    2.167832   3.109812   1.097301   0.000000
     5  H    2.168073   3.112702   1.097286   1.762292   0.000000
     6  H    2.151655   2.520650   1.091680   1.787685   1.787984
     7  C    1.531578   2.425540   2.577873   2.841947   2.838350
     8  H    2.149149   3.126224   2.793177   3.148693   2.607803
     9  H    2.149244   3.125717   2.794174   2.612867   3.144171
    10  C    2.546558   2.826542   3.926327   4.252454   4.249622
    11  H    2.785366   2.769907   4.215283   4.442009   4.776687
    12  H    2.784957   2.769976   4.214333   4.778325   4.440036
    13  C    3.892648   4.333330   5.093633   5.256293   5.251739
    14  H    4.208811   4.784733   5.251366   5.183252   5.471587
    15  H    4.698071   4.917599   6.015945   6.228201   6.224120
    16  H    4.208413   4.784709   5.250418   5.476374   5.177598
                    6          7          8          9         10
     6  H    0.000000
     7  C    3.504990   0.000000
     8  H    3.782465   1.099528   0.000000
     9  H    3.785143   1.099546   1.751250   0.000000
    10  C    4.696643   1.521719   2.167696   2.167782   0.000000
    11  H    4.852564   2.157357   3.073839   2.523074   1.096475
    12  H    4.850085   2.157327   2.523174   3.073888   1.096480
    13  C    5.991461   2.515802   2.759171   2.759593   1.519853
    14  H    6.202423   2.779636   3.116784   2.570775   2.168175
    15  H    6.841908   3.465495   3.763683   3.764118   2.158758
    16  H    6.200308   2.779463   2.570130   3.117098   2.168177
                   11         12         13         14         15
    11  H    0.000000
    12  H    1.760160   0.000000
    13  C    2.147516   2.147473   0.000000
    14  H    2.505375   3.066078   1.094690   0.000000
    15  H    2.473419   2.473252   1.094496   1.771913   0.000000
    16  H    3.066113   2.505427   1.094693   1.774785   1.771901
                   16
    16  H    0.000000
 Symmetry turned off by external request.
 Stoichiometry    C5H10O
 Framework group  C1[X(C5H10O)]
 Deg. of freedom    42
 Full point group                 C1      NOp   1
 Rotational constants (GHZ):      8.2486147      1.7988031      1.5328288
 Leave Link  202 at Tue Feb  7 16:30:30 2017, MaxMem=  1048576000 cpu:         0.0
 (Enter /mnt/data/applications/G09/g09/l9999.exe)
 1\1\GINC-KIMIK2116\FOpt\ONIOM(B3LYP/6-31G(d):External='./sictwo_files/
 sictwo_g09d01')\Mixed\C5H10O1\IFUNES\07-Feb-2017\0\\#p opt=nomicro oni
 om(B3LYP/6-31G*:external="./sictwo_files/sictwo_g09d01") geom=connecti
 vity nosymm scf(maxcyc=100)\\ONIOM(QM:MM) OPT FREQ with SICTWO V1.0\\0
 ,1\C,-2.3495737097,0.4507314231,0.0840131319\O,-1.8050733751,1.4975444
 47,0.3743972206\C,-3.8673564568,0.3348035285,0.0419463245\H,-4.2043507
 093,0.0354193016,-0.9584897663\H,-4.2156169265,-0.4377097869,0.7390654
 068\H,-4.3165689771,1.2940972988,0.3060077234\C,-1.5893856606,-0.83295
 35946,-0.2623947421\H,-1.9157268627,-1.6263038919,0.4253976959\H,-1.90
 2609205,-1.1629518438,-1.2633912647\C,-0.0781910279,-0.6640351675,-0.2
 042121686\H,0.2363569765,0.1244365947,-0.8982072885\H,0.2229514896,-0.
 3407502184,0.7993161751\C,0.6432722048,-1.9556268712,-0.5524020671\H,0
 .3902998926,-2.285654991,-1.565038651\H,1.7268839886,-1.8095865131,-0.
 5036355647\H,0.3765167985,-2.7547727655,0.1465690948\\Version=EM64L-G0
 9RevD.01\HF=0.0048175\RMSD=9.040e-09\RMSF=2.125e-06\Dipole=-0.5056365,
 -0.9558465,-0.2657227\PG=C01 [X(C5H10O1)]\\@


 E PUR SI MUOVE    -- GALILEO GALILEI
 Job cpu time:       0 days  0 hours 19 minutes 57.6 seconds.
 File lengths (MBytes):  RWF=      5 Int=      0 D2E=      0 Chk=      3 Scr=      1
 Normal termination of Gaussian 09 at Tue Feb  7 16:30:30 2017.
