 Entering Gaussian System, Link 0=g09
 Initial command:
 /mnt/data/applications/G09/g09/l1.exe "/scratch/Gau-30975.inp" -scrdir="/scratch/"
 Entering Link 1 = /mnt/data/applications/G09/g09/l1.exe PID=     30976.
  
 Copyright (c) 1988,1990,1992,1993,1995,1998,2003,2009,2013,
            Gaussian, Inc.  All Rights Reserved.
  
 This is part of the Gaussian(R) 09 program.  It is based on
 the Gaussian(R) 03 system (copyright 2003, Gaussian, Inc.),
 the Gaussian(R) 98 system (copyright 1998, Gaussian, Inc.),
 the Gaussian(R) 94 system (copyright 1995, Gaussian, Inc.),
 the Gaussian 92(TM) system (copyright 1992, Gaussian, Inc.),
 the Gaussian 90(TM) system (copyright 1990, Gaussian, Inc.),
 the Gaussian 88(TM) system (copyright 1988, Gaussian, Inc.),
 the Gaussian 86(TM) system (copyright 1986, Carnegie Mellon
 University), and the Gaussian 82(TM) system (copyright 1983,
 Carnegie Mellon University). Gaussian is a federally registered
 trademark of Gaussian, Inc.
  
 This software contains proprietary and confidential information,
 including trade secrets, belonging to Gaussian, Inc.
  
 This software is provided under written license and may be
 used, copied, transmitted, or stored only in accord with that
 written license.
  
 The following legend is applicable only to US Government
 contracts under FAR:
  
                    RESTRICTED RIGHTS LEGEND
  
 Use, reproduction and disclosure by the US Government is
 subject to restrictions as set forth in subparagraphs (a)
 and (c) of the Commercial Computer Software - Restricted
 Rights clause in FAR 52.227-19.
  
 Gaussian, Inc.
 340 Quinnipiac St., Bldg. 40, Wallingford CT 06492
  
  
 ---------------------------------------------------------------
 Warning -- This program may not be used in any manner that
 competes with the business of Gaussian, Inc. or will provide
 assistance to any competitor of Gaussian, Inc.  The licensee
 of this program is prohibited from giving any competitor of
 Gaussian, Inc. access to this program.  By using this program,
 the user acknowledges that Gaussian, Inc. is engaged in the
 business of creating and licensing software in the field of
 computational chemistry and represents and warrants to the
 licensee that it is not a competitor of Gaussian, Inc. and that
 it will not use this program in any manner prohibited above.
 ---------------------------------------------------------------
  

 Cite this work as:
 Gaussian 09, Revision D.01,
 M. J. Frisch, G. W. Trucks, H. B. Schlegel, G. E. Scuseria, 
 M. A. Robb, J. R. Cheeseman, G. Scalmani, V. Barone, B. Mennucci, 
 G. A. Petersson, H. Nakatsuji, M. Caricato, X. Li, H. P. Hratchian, 
 A. F. Izmaylov, J. Bloino, G. Zheng, J. L. Sonnenberg, M. Hada, 
 M. Ehara, K. Toyota, R. Fukuda, J. Hasegawa, M. Ishida, T. Nakajima, 
 Y. Honda, O. Kitao, H. Nakai, T. Vreven, J. A. Montgomery, Jr., 
 J. E. Peralta, F. Ogliaro, M. Bearpark, J. J. Heyd, E. Brothers, 
 K. N. Kudin, V. N. Staroverov, T. Keith, R. Kobayashi, J. Normand, 
 K. Raghavachari, A. Rendell, J. C. Burant, S. S. Iyengar, J. Tomasi, 
 M. Cossi, N. Rega, J. M. Millam, M. Klene, J. E. Knox, J. B. Cross, 
 V. Bakken, C. Adamo, J. Jaramillo, R. Gomperts, R. E. Stratmann, 
 O. Yazyev, A. J. Austin, R. Cammi, C. Pomelli, J. W. Ochterski, 
 R. L. Martin, K. Morokuma, V. G. Zakrzewski, G. A. Voth, 
 P. Salvador, J. J. Dannenberg, S. Dapprich, A. D. Daniels, 
 O. Farkas, J. B. Foresman, J. V. Ortiz, J. Cioslowski, 
 and D. J. Fox, Gaussian, Inc., Wallingford CT, 2013.
 
 ******************************************
 Gaussian 09:  EM64L-G09RevD.01 24-Apr-2013
                 7-Feb-2017 
 ******************************************
 %nprocshared=8
 Will use up to    8 processors via shared memory.
 %mem=8000MB
 %chk=F_3
 ----------------------------------------------------------------------
 #p opt=nomicro oniom(B3LYP/6-31G*:external="./sictwo_files/sictwo_g09d
 01") geom=connectivity nosymm scf(maxcyc=100)
 ----------------------------------------------------------------------
 1/14=-1,18=20,19=15,26=1,38=1,52=2,57=2/1,3;
 2/9=110,12=2,15=1,17=6,18=5,40=1/2;
 1/14=-1,18=20,19=15,26=1,38=1,52=2,53=3172/20;
 3/11=9,16=1,25=1,30=1,41=9900000,43=2,71=1/1;
 4/20=17,22=1,23=100,24=3,113=1,114=1/2;
 6/7=2,8=2,9=2,10=2/1;
 7/7=1,30=1,33=-1,44=-1/16;
 1/14=-1,18=20,19=15,26=1,52=2,53=2032/20;
 3/5=1,6=6,7=1,11=2,16=1,25=1,30=1,71=1,74=-5/1,2,3;
 4//1;
 5/5=2,7=100,38=5/2;
 6/7=2,8=2,9=2,10=2,28=1/1;
 7/7=1,30=1,33=-1/1,2,3,16;
 1/14=-1,18=20,19=15,26=1,52=2,53=1022/20;
 3/11=9,16=1,25=1,30=1,41=9900000,43=2,71=1/1;
 4/20=17,22=1,23=100,24=3,113=1,114=2/2;
 6/7=2,8=2,9=2,10=2/1;
 7/7=1,30=1,33=-1,44=-1/16;
 1/14=-1,18=20,19=15,26=1,52=2,53=3015/20;
 7/9=1,44=-1/16;
 1/14=-1,18=20,19=15,26=1,52=2/3(2);
 2/9=110,15=1/2;
 99//99;
 2/9=110,15=1/2;
 1/14=-1,18=20,19=15,26=1,52=2,53=3173/20;
 3/11=9,16=1,25=1,30=1,41=9900000,43=2,71=1/1;
 4/16=2,20=17,22=1,23=100,24=3,113=1,114=1/2;
 7/7=1,30=1,33=-1,44=-1/16;
 1/14=-1,18=20,19=15,26=1,52=2,53=2033/20;
 3/5=1,6=6,7=1,11=2,16=1,25=1,30=1,71=1,74=-5/1,2,3;
 4/5=5,16=3,69=1/1;
 5/5=2,7=100,38=5/2;
 7/7=1,30=1,33=-1/1,2,3,16;
 1/14=-1,18=20,19=15,26=1,52=2,53=1023/20;
 3/11=9,16=1,25=1,30=1,41=9900000,43=2,71=1/1;
 4/16=2,20=17,22=1,23=100,24=3,113=1,114=2/2;
 7/7=1,30=1,33=-1,44=-1/16;
 1/14=-1,18=20,19=15,26=1,52=2,53=3015/20;
 7/9=1,44=-1/16;
 1/14=-1,18=20,19=15,26=1,52=2/3(-16);
 2/9=110,15=1/2;
 99//99;
 Leave Link    1 at Tue Feb  7 16:43:17 2017, MaxMem=  1048576000 cpu:         0.8
 (Enter /mnt/data/applications/G09/g09/l101.exe)
 --------------------------------------
 ONIOM(QM:MM) OPT FREQ with SICTWO V1.0
 --------------------------------------
 Symbolic Z-matrix:
 Charge =  0 Multiplicity = 1 for low   level calculation on real  system.
 Charge =  0 Multiplicity = 1 for high  level calculation on model system.
 Charge =  0 Multiplicity = 1 for low   level calculation on model system.
 C-C_R                0    -1.9357    0.18087   0.48372  H 
 C-C_R                0    -0.53395   0.18087   0.48372  H 
 C-C_R                0    -0.10996   1.55166   0.48372  H 
 C-C_R                0    -1.26701   2.34312   0.48362  H 
 H-H_                 0    -2.63729  -0.65237   0.48382  H 
 H-H_                 0     0.11042  -0.69184   0.48375  H 
 H-H_                 0     0.91461   1.90815   0.4837   H 
 O-O_R                0    -2.37543   1.50137   0.48372  H 
 C-C_3                0    -1.42101   3.8754    0.48341  L    H-H_     4     0.        0. 
 H-H_                 0    -1.95848   4.17972  -0.39032  L 
 H-H_                 0    -1.95863   4.17995   1.35698  L 
 C-C_3                0    -0.0277    4.53135   0.48345  L 
 H-H_                 0     0.5099    4.22683  -0.39014  L 
 H-H_                 0    -0.1347    5.59598   0.48334  L 
 H-H_                 0     0.50978   4.22699   1.35717  L 
 
 NAtoms=     15 NQM=       15 NQMF=       0 NMMI=      0 NMMIF=      0
                NMic=       0 NMicF=      0.
                    Isotopes and Nuclear Properties:
 (Nuclear quadrupole moments (NQMom) in fm**2, nuclear magnetic moments (NMagM)
  in nuclear magnetons)

  Atom         1           2           3           4           5           6           7           8           9          10
 IAtWgt=          12          12          12          12           1           1           1          16          12           1
 AtmWgt=  12.0000000  12.0000000  12.0000000  12.0000000   1.0078250   1.0078250   1.0078250  15.9949146  12.0000000   1.0078250
 NucSpn=           0           0           0           0           1           1           1           0           0           1
 AtZEff=   0.0000000   0.0000000   0.0000000   0.0000000   0.0000000   0.0000000   0.0000000   0.0000000   0.0000000   0.0000000
 NQMom=    0.0000000   0.0000000   0.0000000   0.0000000   0.0000000   0.0000000   0.0000000   0.0000000   0.0000000   0.0000000
 NMagM=    0.0000000   0.0000000   0.0000000   0.0000000   2.7928460   2.7928460   2.7928460   0.0000000   0.0000000   2.7928460
 AtZNuc=   6.0000000   6.0000000   6.0000000   6.0000000   1.0000000   1.0000000   1.0000000   8.0000000   6.0000000   1.0000000

  Atom        11          12          13          14          15
 IAtWgt=           1          12           1           1           1
 AtmWgt=   1.0078250  12.0000000   1.0078250   1.0078250   1.0078250
 NucSpn=           1           0           1           1           1
 AtZEff=   0.0000000   0.0000000   0.0000000   0.0000000   0.0000000
 NQMom=    0.0000000   0.0000000   0.0000000   0.0000000   0.0000000
 NMagM=    2.7928460   0.0000000   2.7928460   2.7928460   2.7928460
 AtZNuc=   1.0000000   6.0000000   1.0000000   1.0000000   1.0000000
 Leave Link  101 at Tue Feb  7 16:43:17 2017, MaxMem=  1048576000 cpu:         3.2
 (Enter /mnt/data/applications/G09/g09/l103.exe)

 GradGradGradGradGradGradGradGradGradGradGradGradGradGradGradGradGradGrad
 Berny optimization.
 Initialization pass.
                           ----------------------------
                           !    Initial Parameters    !
                           ! (Angstroms and Degrees)  !
 --------------------------                            --------------------------
 ! Name  Definition              Value          Derivative Info.                !
 --------------------------------------------------------------------------------
 ! R1    R(1,2)                  1.4018         estimate D2E/DX2                !
 ! R2    R(1,5)                  1.0893         estimate D2E/DX2                !
 ! R3    R(1,8)                  1.3918         estimate D2E/DX2                !
 ! R4    R(2,3)                  1.4349         estimate D2E/DX2                !
 ! R5    R(2,6)                  1.0848         estimate D2E/DX2                !
 ! R6    R(3,4)                  1.4018         estimate D2E/DX2                !
 ! R7    R(3,7)                  1.0848         estimate D2E/DX2                !
 ! R8    R(4,8)                  1.3918         estimate D2E/DX2                !
 ! R9    R(4,9)                  1.54           estimate D2E/DX2                !
 ! R10   R(9,10)                 1.07           estimate D2E/DX2                !
 ! R11   R(9,11)                 1.07           estimate D2E/DX2                !
 ! R12   R(9,12)                 1.54           estimate D2E/DX2                !
 ! R13   R(12,13)                1.07           estimate D2E/DX2                !
 ! R14   R(12,14)                1.07           estimate D2E/DX2                !
 ! R15   R(12,15)                1.07           estimate D2E/DX2                !
 ! A1    A(2,1,5)              130.0976         estimate D2E/DX2                !
 ! A2    A(2,1,8)              108.4177         estimate D2E/DX2                !
 ! A3    A(5,1,8)              121.4847         estimate D2E/DX2                !
 ! A4    A(1,2,3)              107.1873         estimate D2E/DX2                !
 ! A5    A(1,2,6)              126.4408         estimate D2E/DX2                !
 ! A6    A(3,2,6)              126.372          estimate D2E/DX2                !
 ! A7    A(2,3,4)              107.1858         estimate D2E/DX2                !
 ! A8    A(2,3,7)              126.3724         estimate D2E/DX2                !
 ! A9    A(4,3,7)              126.4419         estimate D2E/DX2                !
 ! A10   A(3,4,8)              108.4137         estimate D2E/DX2                !
 ! A11   A(3,4,9)              130.1121         estimate D2E/DX2                !
 ! A12   A(8,4,9)              121.4742         estimate D2E/DX2                !
 ! A13   A(1,8,4)              108.7956         estimate D2E/DX2                !
 ! A14   A(4,9,10)             109.4712         estimate D2E/DX2                !
 ! A15   A(4,9,11)             109.4712         estimate D2E/DX2                !
 ! A16   A(4,9,12)             109.4712         estimate D2E/DX2                !
 ! A17   A(10,9,11)            109.4713         estimate D2E/DX2                !
 ! A18   A(10,9,12)            109.4712         estimate D2E/DX2                !
 ! A19   A(11,9,12)            109.4712         estimate D2E/DX2                !
 ! A20   A(9,12,13)            109.4712         estimate D2E/DX2                !
 ! A21   A(9,12,14)            109.4712         estimate D2E/DX2                !
 ! A22   A(9,12,15)            109.4712         estimate D2E/DX2                !
 ! A23   A(13,12,14)           109.4713         estimate D2E/DX2                !
 ! A24   A(13,12,15)           109.4712         estimate D2E/DX2                !
 ! A25   A(14,12,15)           109.4712         estimate D2E/DX2                !
 ! D1    D(5,1,2,3)           -179.9933         estimate D2E/DX2                !
 ! D2    D(5,1,2,6)              0.0051         estimate D2E/DX2                !
 ! D3    D(8,1,2,3)              0.0004         estimate D2E/DX2                !
 ! D4    D(8,1,2,6)            179.9987         estimate D2E/DX2                !
 ! D5    D(2,1,8,4)              0.0039         estimate D2E/DX2                !
 ! D6    D(5,1,8,4)            179.9982         estimate D2E/DX2                !
 ! D7    D(1,2,3,4)             -0.0044         estimate D2E/DX2                !
 ! D8    D(1,2,3,7)           -179.9984         estimate D2E/DX2                !
 ! D9    D(6,2,3,4)            179.9972         estimate D2E/DX2                !
 ! D10   D(6,2,3,7)              0.0033         estimate D2E/DX2                !
 ! D11   D(2,3,4,8)              0.0069         estimate D2E/DX2                !
 ! D12   D(2,3,4,9)           -179.9922         estimate D2E/DX2                !
 ! D13   D(7,3,4,8)           -179.9992         estimate D2E/DX2                !
 ! D14   D(7,3,4,9)              0.0017         estimate D2E/DX2                !
 ! D15   D(3,4,8,1)             -0.0067         estimate D2E/DX2                !
 ! D16   D(9,4,8,1)            179.9924         estimate D2E/DX2                !
 ! D17   D(3,4,9,10)           119.9949         estimate D2E/DX2                !
 ! D18   D(3,4,9,11)          -120.0051         estimate D2E/DX2                !
 ! D19   D(3,4,9,12)            -0.0051         estimate D2E/DX2                !
 ! D20   D(8,4,9,10)           -60.004          estimate D2E/DX2                !
 ! D21   D(8,4,9,11)            59.996          estimate D2E/DX2                !
 ! D22   D(8,4,9,12)           179.996          estimate D2E/DX2                !
 ! D23   D(4,9,12,13)           60.0021         estimate D2E/DX2                !
 ! D24   D(4,9,12,14)         -179.9979         estimate D2E/DX2                !
 ! D25   D(4,9,12,15)          -59.9979         estimate D2E/DX2                !
 ! D26   D(10,9,12,13)         -59.9979         estimate D2E/DX2                !
 ! D27   D(10,9,12,14)          60.0021         estimate D2E/DX2                !
 ! D28   D(10,9,12,15)        -179.9979         estimate D2E/DX2                !
 ! D29   D(11,9,12,13)        -179.998          estimate D2E/DX2                !
 ! D30   D(11,9,12,14)         -59.998          estimate D2E/DX2                !
 ! D31   D(11,9,12,15)          60.002          estimate D2E/DX2                !
 --------------------------------------------------------------------------------
 Trust Radius=3.00D-01 FncErr=1.00D-07 GrdErr=1.00D-07
 Number of steps in this run=     81 maximum allowed number of steps=    100.
 GradGradGradGradGradGradGradGradGradGradGradGradGradGradGradGradGradGrad

 Leave Link  103 at Tue Feb  7 16:43:18 2017, MaxMem=  1048576000 cpu:         0.1
 (Enter /mnt/data/applications/G09/g09/l202.exe)
                          Input orientation:                          
 ---------------------------------------------------------------------
 Center     Atomic      Atomic             Coordinates (Angstroms)
 Number     Number       Type             X           Y           Z
 ---------------------------------------------------------------------
      1          6    10061000       -1.935705    0.180867    0.483724
      2          6    10061000       -0.533955    0.180867    0.483724
      3          6    10061000       -0.109957    1.551663    0.483724
      4          6    10061000       -1.267014    2.343116    0.483620
      5          1    10011000       -2.637293   -0.652366    0.483822
      6          1    10011000        0.110418   -0.691839    0.483749
      7          1    10011000        0.914606    1.908155    0.483699
      8          8    10081000       -2.375432    1.501375    0.483715
      9          6    10061003       -1.421012    3.875397    0.483412
     10          1    10011000       -1.958478    4.179725   -0.390324
     11          1    10011000       -1.958627    4.179947    1.356979
     12          6    10061003       -0.027697    4.531348    0.483448
     13          1    10011000        0.509905    4.226826   -0.390137
     14          1    10011000       -0.134696    5.595985    0.483340
     15          1    10011000        0.509783    4.226992    1.357165
 ---------------------------------------------------------------------
                    Distance matrix (angstroms):
                    1          2          3          4          5
     1  C    0.000000
     2  C    1.401750   0.000000
     3  C    2.283076   1.434871   0.000000
     4  C    2.263287   2.283133   1.401848   0.000000
     5  H    1.089267   2.262368   3.353382   3.294021   0.000000
     6  H    2.224463   1.084819   2.254300   3.332907   2.747995
     7  H    3.332836   2.254297   1.084811   2.224558   4.378613
     8  O    1.391798   2.266005   2.266033   1.391804   2.169602
     9  C    3.730209   3.799529   2.668071   1.540000   4.688281
    10  H    4.093329   4.334062   3.329820   2.148263   4.957219
    11  H    4.093377   4.334156   3.329870   2.148263   4.957241
    12  C    4.750493   4.379839   2.980821   2.514810   5.803524
    13  H    4.807747   4.268848   2.881729   2.732994   5.871557
    14  H    5.706762   5.429817   4.044398   3.444314   6.730890
    15  H    4.807748   4.268889   2.881729   2.732961   5.871537
                    6          7          8          9         10
     6  H    0.000000
     7  H    2.721523   0.000000
     8  O    3.315062   3.315090   0.000000
     9  C    4.817149   3.053711   2.558690   0.000000
    10  H    5.364370   3.765443   2.848043   1.070000   0.000000
    11  H    5.364492   3.765518   2.847993   1.070000   1.747303
    12  C    5.225013   2.787307   3.833093   1.540000   2.148263
    13  H    5.011640   2.510699   4.064095   2.148263   2.468833
    14  H    6.292600   3.834205   4.667625   2.148263   2.468859
    15  H    5.011711   2.510743   4.064034   2.148263   3.024610
                   11         12         13         14         15
    11  H    0.000000
    12  C    2.148263   0.000000
    13  H    3.024610   1.070000   0.000000
    14  H    2.468833   1.070000   1.747303   0.000000
    15  H    2.468859   1.070000   1.747303   1.747303   0.000000
 Symmetry turned off by external request.
 Stoichiometry    C6H8O
 Framework group  C1[X(C6H8O)]
 Deg. of freedom    39
 Full point group                 C1      NOp   1
 Rotational constants (GHZ):      6.8407598      1.8994646      1.5140735
 Leave Link  202 at Tue Feb  7 16:43:18 2017, MaxMem=  1048576000 cpu:         0.0
 (Enter /mnt/data/applications/G09/g09/l120.exe)
 ONIOM: Cut between C /H     9 and C     4 factor= 0.723886 0.723886
 ONIOM: saving gridpoint 17
 ONIOM: generating point  3 -- low level on real system.
 Leave Link  120 at Tue Feb  7 16:43:18 2017, MaxMem=  1048576000 cpu:         0.0
 (Enter /mnt/data/applications/G09/g09/l301.exe)
 Standard basis: STO-3G (5D, 7F)
 Ernie: Thresh=  0.10000D-02 Tol=  0.10000D-05 Strict=F.
    43 basis functions,   129 primitive gaussians,    43 cartesian basis functions
    26 alpha electrons       26 beta electrons
       nuclear repulsion energy       285.1818137383 Hartrees.
 IExCor=    0 DFT=F Ex=HF Corr=None ExCW=0 ScaHFX=  1.000000
 ScaDFX=  1.000000  1.000000  1.000000  1.000000 ScalE2=  1.000000  1.000000
 IRadAn=      0 IRanWt=     -1 IRanGd=            0 ICorTp=0 IEmpDi=  4
 NAtoms=   15 NActive=   15 NUniq=   15 SFac= 1.00D+00 NAtFMM=   60 NAOKFM=F Big=F
 Integral buffers will be    131072 words long.
 Raffenetti 1 integral format.
 Two-electron integral symmetry is turned off.
 Leave Link  301 at Tue Feb  7 16:43:18 2017, MaxMem=  1048576000 cpu:         0.4
 (Enter /mnt/data/applications/G09/g09/l402.exe)
 External calculation of energy and first derivatives.
 Running external command "./sictwo_files/sictwo_g09d01 R"
         input file       "/scratch/Gau-30976.EIn"
         output file      "/scratch/Gau-30976.EOu"
         message file     "/scratch/Gau-30976.EMs"
         fchk file        "/scratch/Gau-30976.EFC"
         mat. el file     "/scratch/Gau-30976.EUF"

---------------------------- SICTWO Version 1.0 STARTED -----------------------------

MM calculations started
MM calculations finished ....
Information recovery

---------------------------- SICTWO Version 1.0 FINISHED -----------------------------

 Recovered energy= 0.188086351626E-01 dipole=      0.719584097347     -0.048785362532      0.000000000000
 Energy=    1.880863516E-02 NIter=   0.
 Dipole moment=       0.719584      -0.048785       0.000000
 Leave Link  402 at Tue Feb  7 16:43:21 2017, MaxMem=  1048576000 cpu:        23.0
 (Enter /mnt/data/applications/G09/g09/l601.exe)
 Leave Link  601 at Tue Feb  7 16:43:21 2017, MaxMem=  1048576000 cpu:         0.2
 (Enter /mnt/data/applications/G09/g09/l716.exe)
 Dipole        = 7.19584097D-01-4.87853625D-02 0.00000000D+00
 Cartesian Forces:  Max     0.030983153 RMS     0.012703623
 Leave Link  716 at Tue Feb  7 16:43:22 2017, MaxMem=  1048576000 cpu:         0.2
 (Enter /mnt/data/applications/G09/g09/l120.exe)
 SvSCFP did not find density file   528.
 ONIOM: saving gridpoint  3
 ONIOM: restoring gridpoint 17
 ONIOM: generating point  2 -- high level on model system.
 Leave Link  120 at Tue Feb  7 16:43:22 2017, MaxMem=  1048576000 cpu:         0.0
 (Enter /mnt/data/applications/G09/g09/l301.exe)
 Standard basis: 6-31G(d) (6D, 7F)
 Ernie: Thresh=  0.10000D-02 Tol=  0.10000D-05 Strict=F.
    83 basis functions,   156 primitive gaussians,    83 cartesian basis functions
    18 alpha electrons       18 beta electrons
       nuclear repulsion energy       157.6545175917 Hartrees.
 IExCor=  402 DFT=T Ex+Corr=B3LYP ExCW=0 ScaHFX=  0.200000
 ScaDFX=  0.800000  0.720000  1.000000  0.810000 ScalE2=  1.000000  1.000000
 IRadAn=      0 IRanWt=     -1 IRanGd=            0 ICorTp=0 IEmpDi=  4
 NAtoms=   15 NActive=    9 NUniq=    9 SFac= 1.00D+00 NAtFMM=   60 NAOKFM=F Big=F
 Integral buffers will be    131072 words long.
 Raffenetti 2 integral format.
 Two-electron integral symmetry is turned off.
 Leave Link  301 at Tue Feb  7 16:43:22 2017, MaxMem=  1048576000 cpu:         0.5
 (Enter /mnt/data/applications/G09/g09/l302.exe)
 NPDir=0 NMtPBC=     1 NCelOv=     1 NCel=       1 NClECP=     1 NCelD=      1
         NCelK=      1 NCelE2=     1 NClLst=     1 CellRange=     0.0.
 One-electron integrals computed using PRISM.
 NBasis=    83 RedAO= T EigKep=  1.42D-03  NBF=    83
 NBsUse=    83 1.00D-06 EigRej= -1.00D+00 NBFU=    83
 Precomputing XC quadrature grid using
 IXCGrd= 4 IRadAn=           0 IRanWt=          -1 IRanGd=           0 AccXCQ= 0.00D+00.
 Generated NRdTot=       0 NPtTot=           0 NUsed=           0 NTot=          32
 NSgBfM=    83    83    83    83    83 MxSgAt=     9 MxSgA2=     9.
 Leave Link  302 at Tue Feb  7 16:43:22 2017, MaxMem=  1048576000 cpu:         1.5
 (Enter /mnt/data/applications/G09/g09/l303.exe)
 DipDrv:  MaxL=1.
 Leave Link  303 at Tue Feb  7 16:43:22 2017, MaxMem=  1048576000 cpu:         0.3
 (Enter /mnt/data/applications/G09/g09/l401.exe)
 ExpMin= 1.61D-01 ExpMax= 5.48D+03 ExpMxC= 8.25D+02 IAcc=1 IRadAn=         1 AccDes= 0.00D+00
 Harris functional with IExCor=  402 and IRadAn=       1 diagonalized for initial guess.
 HarFok:  IExCor=  402 AccDes= 0.00D+00 IRadAn=         1 IDoV= 1 UseB2=F ITyADJ=14
 ICtDFT=  3500011 ScaDFX=  1.000000  1.000000  1.000000  1.000000
 FoFCou: FMM=F IPFlag=           0 FMFlag=      100000 FMFlg1=           0
         NFxFlg=           0 DoJE=T BraDBF=F KetDBF=T FulRan=T
         wScrn=  0.000000 ICntrl=     500 IOpCl=  0 I1Cent=   200000004 NGrid=           0
         NMat0=    1 NMatS0=      1 NMatT0=    0 NMatD0=    1 NMtDS0=    0 NMtDT0=    0
 Symmetry not used in FoFCou.
 Harris En= -230.014702655245    
 JPrj=0 DoOrth=F DoCkMO=F.
 Leave Link  401 at Tue Feb  7 16:43:23 2017, MaxMem=  1048576000 cpu:         1.9
 (Enter /mnt/data/applications/G09/g09/l502.exe)
 Closed shell SCF:
 Using DIIS extrapolation, IDIIS=  1040.
 Two-electron integral symmetry not used.
 Keep R1 ints in memory in canonical form, NReq=7014464.
 IVT=       33885 IEndB=       33885 NGot=  1048576000 MDV=  1042464275
 LenX=  1042464275 LenY=  1042456945
 Requested convergence on RMS density matrix=1.00D-08 within 100 cycles.
 Requested convergence on MAX density matrix=1.00D-06.
 Requested convergence on             energy=1.00D-06.
 No special actions if energy rises.
 FoFCou: FMM=F IPFlag=           0 FMFlag=           0 FMFlg1=           0
         NFxFlg=           0 DoJE=F BraDBF=F KetDBF=F FulRan=T
         wScrn=  0.000000 ICntrl=     600 IOpCl=  0 I1Cent=           0 NGrid=           0
         NMat0=    1 NMatS0=   3486 NMatT0=    0 NMatD0=    1 NMtDS0=    0 NMtDT0=    0
 Symmetry not used in FoFCou.
 Integral accuracy reduced to 1.0D-05 until final iterations.

 Cycle   1  Pass 0  IDiag  1:
 E= -229.908113037855    
 DIIS: error= 3.50D-02 at cycle   1 NSaved=   1.
 NSaved= 1 IEnMin= 1 EnMin= -229.908113037855     IErMin= 1 ErrMin= 3.50D-02
 ErrMax= 3.50D-02  0.00D+00 EMaxC= 1.00D-01 BMatC= 9.71D-02 BMatP= 9.71D-02
 IDIUse=3 WtCom= 6.50D-01 WtEn= 3.50D-01
 Coeff-Com:  0.100D+01
 Coeff-En:   0.100D+01
 Coeff:      0.100D+01
 Gap=     0.207 Goal=   None    Shift=    0.000
 GapD=    0.207 DampG=1.000 DampE=0.500 DampFc=0.5000 IDamp=-1.
 Damping current iteration by 5.00D-01
 RMSDP=8.54D-03 MaxDP=1.40D-01              OVMax= 2.27D-01

 Cycle   2  Pass 0  IDiag  1:
 E= -229.946529388627     Delta-E=       -0.038416350772 Rises=F Damp=T
 DIIS: error= 1.05D-02 at cycle   2 NSaved=   2.
 NSaved= 2 IEnMin= 2 EnMin= -229.946529388627     IErMin= 2 ErrMin= 1.05D-02
 ErrMax= 1.05D-02  0.00D+00 EMaxC= 1.00D-01 BMatC= 1.21D-02 BMatP= 9.71D-02
 IDIUse=3 WtCom= 8.95D-01 WtEn= 1.05D-01
 Coeff-Com:  0.132D+00 0.868D+00
 Coeff-En:   0.234D+00 0.766D+00
 Coeff:      0.143D+00 0.857D+00
 Gap=     0.216 Goal=   None    Shift=    0.000
 RMSDP=2.80D-03 MaxDP=3.91D-02 DE=-3.84D-02 OVMax= 1.92D-01

 Cycle   3  Pass 0  IDiag  1:
 E= -229.998720167767     Delta-E=       -0.052190779140 Rises=F Damp=F
 DIIS: error= 1.43D-02 at cycle   3 NSaved=   3.
 NSaved= 3 IEnMin= 3 EnMin= -229.998720167767     IErMin= 2 ErrMin= 1.05D-02
 ErrMax= 1.43D-02  0.00D+00 EMaxC= 1.00D-01 BMatC= 1.41D-02 BMatP= 1.21D-02
 IDIUse=2 WtCom= 0.00D+00 WtEn= 1.00D+00
 Coeff-En:   0.000D+00 0.000D+00 0.100D+01
 Coeff:      0.000D+00 0.000D+00 0.100D+01
 Gap=     0.214 Goal=   None    Shift=    0.000
 RMSDP=3.86D-03 MaxDP=7.09D-02 DE=-5.22D-02 OVMax= 1.53D-01

 Cycle   4  Pass 0  IDiag  1:
 E= -229.951943147646     Delta-E=        0.046777020121 Rises=F Damp=F
 DIIS: error= 3.33D-02 at cycle   4 NSaved=   4.
 NSaved= 4 IEnMin= 3 EnMin= -229.998720167767     IErMin= 2 ErrMin= 1.05D-02
 ErrMax= 3.33D-02  0.00D+00 EMaxC= 1.00D-01 BMatC= 6.28D-02 BMatP= 1.21D-02
 IDIUse=2 WtCom= 0.00D+00 WtEn= 1.00D+00
 Coeff-En:   0.000D+00 0.000D+00 0.764D+00 0.236D+00
 Coeff:      0.000D+00 0.000D+00 0.764D+00 0.236D+00
 Gap=     0.223 Goal=   None    Shift=    0.000
 RMSDP=1.95D-03 MaxDP=3.61D-02 DE= 4.68D-02 OVMax= 8.41D-02

 Cycle   5  Pass 0  IDiag  1:
 E= -230.008678966604     Delta-E=       -0.056735818958 Rises=F Damp=F
 DIIS: error= 7.96D-03 at cycle   5 NSaved=   5.
 NSaved= 5 IEnMin= 5 EnMin= -230.008678966604     IErMin= 5 ErrMin= 7.96D-03
 ErrMax= 7.96D-03  0.00D+00 EMaxC= 1.00D-01 BMatC= 3.91D-03 BMatP= 1.21D-02
 IDIUse=3 WtCom= 9.20D-01 WtEn= 7.96D-02
 Coeff-Com: -0.554D-02 0.244D-01 0.243D+00-0.107D+00 0.845D+00
 Coeff-En:   0.000D+00 0.000D+00 0.266D+00 0.000D+00 0.734D+00
 Coeff:     -0.510D-02 0.224D-01 0.245D+00-0.981D-01 0.836D+00
 Gap=     0.227 Goal=   None    Shift=    0.000
 RMSDP=7.03D-04 MaxDP=1.20D-02 DE=-5.67D-02 OVMax= 2.78D-02

 Cycle   6  Pass 0  IDiag  1:
 E= -230.012490087523     Delta-E=       -0.003811120919 Rises=F Damp=F
 DIIS: error= 4.89D-04 at cycle   6 NSaved=   6.
 NSaved= 6 IEnMin= 6 EnMin= -230.012490087523     IErMin= 6 ErrMin= 4.89D-04
 ErrMax= 4.89D-04  0.00D+00 EMaxC= 1.00D-01 BMatC= 1.30D-05 BMatP= 3.91D-03
 IDIUse=3 WtCom= 9.95D-01 WtEn= 4.89D-03
 Coeff-Com: -0.511D-02 0.121D-01 0.906D-01-0.664D-01 0.433D+00 0.535D+00
 Coeff-En:   0.000D+00 0.000D+00 0.000D+00 0.000D+00 0.000D+00 0.100D+01
 Coeff:     -0.508D-02 0.120D-01 0.902D-01-0.660D-01 0.431D+00 0.538D+00
 Gap=     0.228 Goal=   None    Shift=    0.000
 RMSDP=4.20D-05 MaxDP=8.18D-04 DE=-3.81D-03 OVMax= 1.73D-03

 Cycle   7  Pass 0  IDiag  1:
 E= -230.012503545409     Delta-E=       -0.000013457886 Rises=F Damp=F
 DIIS: error= 4.39D-05 at cycle   7 NSaved=   7.
 NSaved= 7 IEnMin= 7 EnMin= -230.012503545409     IErMin= 7 ErrMin= 4.39D-05
 ErrMax= 4.39D-05  0.00D+00 EMaxC= 1.00D-01 BMatC= 1.50D-07 BMatP= 1.30D-05
 IDIUse=1 WtCom= 1.00D+00 WtEn= 0.00D+00
 Coeff-Com: -0.259D-03-0.253D-04 0.121D-01-0.681D-02 0.537D-01 0.147D+00
 Coeff-Com:  0.794D+00
 Coeff:     -0.259D-03-0.253D-04 0.121D-01-0.681D-02 0.537D-01 0.147D+00
 Coeff:      0.794D+00
 Gap=     0.228 Goal=   None    Shift=    0.000
 RMSDP=4.08D-06 MaxDP=8.85D-05 DE=-1.35D-05 OVMax= 1.05D-04

 Initial convergence to 1.0D-05 achieved.  Increase integral accuracy.
 Cycle   8  Pass 1  IDiag  1:
 E= -230.012530317031     Delta-E=       -0.000026771622 Rises=F Damp=F
 DIIS: error= 1.44D-05 at cycle   1 NSaved=   1.
 NSaved= 1 IEnMin= 1 EnMin= -230.012530317031     IErMin= 1 ErrMin= 1.44D-05
 ErrMax= 1.44D-05  0.00D+00 EMaxC= 1.00D-01 BMatC= 2.55D-08 BMatP= 2.55D-08
 IDIUse=1 WtCom= 1.00D+00 WtEn= 0.00D+00
 Coeff-Com:  0.100D+01
 Coeff:      0.100D+01
 Gap=     0.228 Goal=   None    Shift=    0.000
 RMSDP=4.08D-06 MaxDP=8.85D-05 DE=-2.68D-05 OVMax= 1.54D-04

 Cycle   9  Pass 1  IDiag  1:
 E= -230.012530310731     Delta-E=        0.000000006300 Rises=F Damp=F
 DIIS: error= 2.57D-05 at cycle   2 NSaved=   2.
 NSaved= 2 IEnMin= 1 EnMin= -230.012530317031     IErMin= 1 ErrMin= 1.44D-05
 ErrMax= 2.57D-05  0.00D+00 EMaxC= 1.00D-01 BMatC= 3.46D-08 BMatP= 2.55D-08
 IDIUse=1 WtCom= 1.00D+00 WtEn= 0.00D+00
 Coeff-Com:  0.548D+00 0.452D+00
 Coeff:      0.548D+00 0.452D+00
 Gap=     0.228 Goal=   None    Shift=    0.000
 RMSDP=2.77D-06 MaxDP=7.14D-05 DE= 6.30D-09 OVMax= 1.42D-04

 Cycle  10  Pass 1  IDiag  1:
 E= -230.012530342382     Delta-E=       -0.000000031651 Rises=F Damp=F
 DIIS: error= 8.94D-06 at cycle   3 NSaved=   3.
 NSaved= 3 IEnMin= 3 EnMin= -230.012530342382     IErMin= 3 ErrMin= 8.94D-06
 ErrMax= 8.94D-06  0.00D+00 EMaxC= 1.00D-01 BMatC= 4.60D-09 BMatP= 2.55D-08
 IDIUse=1 WtCom= 1.00D+00 WtEn= 0.00D+00
 Coeff-Com: -0.164D-01 0.264D+00 0.752D+00
 Coeff:     -0.164D-01 0.264D+00 0.752D+00
 Gap=     0.228 Goal=   None    Shift=    0.000
 RMSDP=7.57D-07 MaxDP=1.68D-05 DE=-3.17D-08 OVMax= 3.42D-05

 Cycle  11  Pass 1  IDiag  1:
 E= -230.012530346996     Delta-E=       -0.000000004614 Rises=F Damp=F
 DIIS: error= 1.90D-06 at cycle   4 NSaved=   4.
 NSaved= 4 IEnMin= 4 EnMin= -230.012530346996     IErMin= 4 ErrMin= 1.90D-06
 ErrMax= 1.90D-06  0.00D+00 EMaxC= 1.00D-01 BMatC= 2.10D-10 BMatP= 4.60D-09
 IDIUse=1 WtCom= 1.00D+00 WtEn= 0.00D+00
 Coeff-Com: -0.190D-01 0.164D+00 0.484D+00 0.370D+00
 Coeff:     -0.190D-01 0.164D+00 0.484D+00 0.370D+00
 Gap=     0.228 Goal=   None    Shift=    0.000
 RMSDP=1.38D-07 MaxDP=3.37D-06 DE=-4.61D-09 OVMax= 4.52D-06

 Cycle  12  Pass 1  IDiag  1:
 E= -230.012530347158     Delta-E=       -0.000000000162 Rises=F Damp=F
 DIIS: error= 2.50D-07 at cycle   5 NSaved=   5.
 NSaved= 5 IEnMin= 5 EnMin= -230.012530347158     IErMin= 5 ErrMin= 2.50D-07
 ErrMax= 2.50D-07  0.00D+00 EMaxC= 1.00D-01 BMatC= 3.95D-12 BMatP= 2.10D-10
 IDIUse=1 WtCom= 1.00D+00 WtEn= 0.00D+00
 Coeff-Com: -0.603D-02 0.363D-01 0.113D+00 0.146D+00 0.711D+00
 Coeff:     -0.603D-02 0.363D-01 0.113D+00 0.146D+00 0.711D+00
 Gap=     0.228 Goal=   None    Shift=    0.000
 RMSDP=3.16D-08 MaxDP=5.94D-07 DE=-1.62D-10 OVMax= 1.31D-06

 Cycle  13  Pass 1  IDiag  1:
 E= -230.012530347157     Delta-E=        0.000000000001 Rises=F Damp=F
 DIIS: error= 1.53D-07 at cycle   6 NSaved=   6.
 NSaved= 6 IEnMin= 5 EnMin= -230.012530347158     IErMin= 6 ErrMin= 1.53D-07
 ErrMax= 1.53D-07  0.00D+00 EMaxC= 1.00D-01 BMatC= 1.22D-12 BMatP= 3.95D-12
 IDIUse=1 WtCom= 1.00D+00 WtEn= 0.00D+00
 Coeff-Com: -0.144D-02 0.565D-02 0.204D-01 0.423D-01 0.408D+00 0.525D+00
 Coeff:     -0.144D-02 0.565D-02 0.204D-01 0.423D-01 0.408D+00 0.525D+00
 Gap=     0.228 Goal=   None    Shift=    0.000
 RMSDP=1.48D-08 MaxDP=3.52D-07 DE= 5.12D-13 OVMax= 6.62D-07

 Cycle  14  Pass 1  IDiag  1:
 E= -230.012530347161     Delta-E=       -0.000000000004 Rises=F Damp=F
 DIIS: error= 2.83D-08 at cycle   7 NSaved=   7.
 NSaved= 7 IEnMin= 7 EnMin= -230.012530347161     IErMin= 7 ErrMin= 2.83D-08
 ErrMax= 2.83D-08  0.00D+00 EMaxC= 1.00D-01 BMatC= 9.95D-14 BMatP= 1.22D-12
 IDIUse=1 WtCom= 1.00D+00 WtEn= 0.00D+00
 Coeff-Com:  0.184D-03-0.288D-02-0.706D-02-0.353D-02 0.100D+00 0.270D+00
 Coeff-Com:  0.643D+00
 Coeff:      0.184D-03-0.288D-02-0.706D-02-0.353D-02 0.100D+00 0.270D+00
 Coeff:      0.643D+00
 Gap=     0.228 Goal=   None    Shift=    0.000
 RMSDP=3.64D-09 MaxDP=5.51D-08 DE=-3.52D-12 OVMax= 1.18D-07

 SCF Done:  E(RB3LYP) =  -230.012530347     A.U. after   14 cycles
            NFock= 14  Conv=0.36D-08     -V/T= 2.0112
 KE= 2.274670591668D+02 PE=-8.506464394153D+02 EE= 2.355123323097D+02
 Leave Link  502 at Tue Feb  7 16:43:24 2017, MaxMem=  1048576000 cpu:        14.4
 (Enter /mnt/data/applications/G09/g09/l601.exe)
 Copying SCF densities to generalized density rwf, IOpCl= 0 IROHF=0.

 **********************************************************************

            Population analysis using the SCF density.

 **********************************************************************

 Alpha  occ. eigenvalues --  -19.21386 -10.24277 -10.24045 -10.18957 -10.18915
 Alpha  occ. eigenvalues --   -1.08496  -0.78277  -0.72990  -0.58197  -0.56874
 Alpha  occ. eigenvalues --   -0.52761  -0.44974  -0.43038  -0.39995  -0.39193
 Alpha  occ. eigenvalues --   -0.35779  -0.27062  -0.22022
 Alpha virt. eigenvalues --    0.00753   0.07151   0.10703   0.12251   0.14837
 Alpha virt. eigenvalues --    0.16470   0.18678   0.19844   0.30643   0.35954
 Alpha virt. eigenvalues --    0.41659   0.52101   0.53639   0.56559   0.57972
 Alpha virt. eigenvalues --    0.58124   0.58976   0.61358   0.61865   0.65510
 Alpha virt. eigenvalues --    0.67672   0.79737   0.81456   0.83448   0.90303
 Alpha virt. eigenvalues --    0.90977   0.97744   0.97930   1.00699   1.02750
 Alpha virt. eigenvalues --    1.12601   1.13091   1.35737   1.36955   1.37507
 Alpha virt. eigenvalues --    1.39531   1.48419   1.53330   1.56608   1.56822
 Alpha virt. eigenvalues --    1.67796   1.82169   1.92220   1.98295   1.98791
 Alpha virt. eigenvalues --    2.02558   2.18903   2.20575   2.20924   2.21767
 Alpha virt. eigenvalues --    2.29558   2.36140   2.52632   2.61039   2.61971
 Alpha virt. eigenvalues --    2.64101   2.75811   2.88772   2.92469   3.03827
 Alpha virt. eigenvalues --    3.91658   4.11758   4.12334   4.28861   4.44995
          Condensed to atoms (all electrons):
               1          2          3          4          5          6
     1  C    4.856255   0.576499  -0.053526  -0.104157   0.370192  -0.038549
     2  C    0.576499   4.911976   0.510521  -0.053675  -0.043642   0.360046
     3  C   -0.053526   0.510521   4.911226   0.575925   0.003191  -0.036325
     4  C   -0.104157  -0.053675   0.575925   4.861462   0.004609   0.005606
     5  H    0.370192  -0.043642   0.003191   0.004609   0.532127  -0.000154
     6  H   -0.038549   0.360046  -0.036325   0.005606  -0.000154   0.567878
     7  H    0.005589  -0.036292   0.359899  -0.038367  -0.000109  -0.001995
     8  O    0.307617  -0.055136  -0.055667   0.307389  -0.032321   0.003197
     9  H    0.004493   0.002997  -0.042084   0.366846  -0.000087  -0.000102
               7          8          9
     1  C    0.005589   0.307617   0.004493
     2  C   -0.036292  -0.055136   0.002997
     3  C    0.359899  -0.055667  -0.042084
     4  C   -0.038367   0.307389   0.366846
     5  H   -0.000109  -0.032321  -0.000087
     6  H   -0.001995   0.003197  -0.000102
     7  H    0.567823   0.003193  -0.000071
     8  O    0.003193   7.969871  -0.031352
     9  H   -0.000071  -0.031352   0.532986
 Mulliken charges:
               1
     1  C    0.075587
     2  C   -0.173294
     3  C   -0.173160
     4  C    0.074363
     5  H    0.166193
     6  H    0.140398
     7  H    0.140330
     8  O   -0.416790
     9  H    0.166375
    10  H    0.000000
    11  H    0.000000
    12  C    0.000000
    13  H    0.000000
    14  H    0.000000
    15  H    0.000000
 Sum of Mulliken charges =   0.00000
 Mulliken charges with hydrogens summed into heavy atoms:
               1
     1  C    0.241779
     2  C   -0.032896
     3  C   -0.032830
     4  C    0.240737
     8  O   -0.416790
    12  C    0.000000
 Electronic spatial extent (au):  <R**2>=            703.6278
 Charge=              0.0000 electrons
 Dipole moment (field-independent basis, Debye):
    X=              0.6855    Y=             -0.2118    Z=             -0.0001  Tot=              0.7174
 Quadrupole moment (field-independent basis, Debye-Ang):
   XX=            -29.2263   YY=            -23.9039   ZZ=            -31.3781
   XY=              2.4406   XZ=              0.3316   YZ=             -0.1033
 Traceless Quadrupole moment (field-independent basis, Debye-Ang):
   XX=             -1.0569   YY=              4.2656   ZZ=             -3.2087
   XY=              2.4406   XZ=              0.3316   YZ=             -0.1033
 Octapole moment (field-independent basis, Debye-Ang**2):
  XXX=            107.2633  YYY=            -78.3086  ZZZ=            -45.5328  XYY=             31.0403
  XXY=            -40.4609  XXZ=            -14.1364  XZZ=             36.6205  YZZ=            -35.4619
  YYZ=            -11.5647  XYZ=              1.1817
 Hexadecapole moment (field-independent basis, Debye-Ang**3):
 XXXX=           -431.0081 YYYY=           -332.3225 ZZZZ=            -75.0170 XXXY=            145.5712
 XXXZ=             51.8816 YYYX=             91.4702 YYYZ=            -37.8832 ZZZX=             52.9848
 ZZZY=            -51.4063 XXYY=           -136.1124 XXZZ=            -84.9312 YYZZ=            -85.9361
 XXYZ=            -19.5717 YYXZ=             15.0174 ZZXY=             40.2253
 N-N= 1.576545175917D+02 E-N=-8.506464412224D+02  KE= 2.274670591668D+02
 No NMR shielding tensors so no spin-rotation constants.
 Leave Link  601 at Tue Feb  7 16:43:25 2017, MaxMem=  1048576000 cpu:         1.2
 (Enter /mnt/data/applications/G09/g09/l701.exe)
 Compute integral first derivatives.
 ... and contract with generalized density number  0.
 Leave Link  701 at Tue Feb  7 16:43:25 2017, MaxMem=  1048576000 cpu:         1.2
 (Enter /mnt/data/applications/G09/g09/l702.exe)
 L702 exits ... SP integral derivatives will be done elsewhere.
 Leave Link  702 at Tue Feb  7 16:43:25 2017, MaxMem=  1048576000 cpu:         0.2
 (Enter /mnt/data/applications/G09/g09/l703.exe)
 Compute integral first derivatives, UseDBF=F ICtDFT=           0.
 Integral derivatives from FoFJK, PRISM(SPDF).
 Calling FoFJK, ICntrl=      2127 FMM=F ISym2X=0 I1Cent= 0 IOpClX= 0 NMat=1 NMatS=1 NMatT=0.
 FoFJK:  IHMeth= 1 ICntrl=    2127 DoSepK=F KAlg= 0 I1Cent=   0 FoldK=F
 IRaf=         0 NMat=   1 IRICut=       1 DoRegI=T DoRafI=F ISym2E= 0.
 FoFCou: FMM=F IPFlag=           0 FMFlag=      100000 FMFlg1=         800
         NFxFlg=           0 DoJE=F BraDBF=F KetDBF=F FulRan=T
         wScrn=  0.000000 ICntrl=    2127 IOpCl=  0 I1Cent=           0 NGrid=           0
         NMat0=    1 NMatS0=      1 NMatT0=    0 NMatD0=    1 NMtDS0=    0 NMtDT0=    0
 Symmetry not used in FoFCou.
 Leave Link  703 at Tue Feb  7 16:43:26 2017, MaxMem=  1048576000 cpu:         5.0
 (Enter /mnt/data/applications/G09/g09/l716.exe)
 Dipole        = 2.69679260D-01-8.33339155D-02-3.24265903D-05
 Cartesian Forces:  Max     0.043499271 RMS     0.011778406
 Leave Link  716 at Tue Feb  7 16:43:26 2017, MaxMem=  1048576000 cpu:         0.2
 (Enter /mnt/data/applications/G09/g09/l120.exe)
 SvSCFP is copying densities from files   528 and   530 to   603.
 ONIOM: saving gridpoint  2
 ONIOM: restoring gridpoint 17
 ONIOM: generating point  1 -- low level on model system.
 Leave Link  120 at Tue Feb  7 16:43:26 2017, MaxMem=  1048576000 cpu:         0.2
 (Enter /mnt/data/applications/G09/g09/l301.exe)
 Standard basis: STO-3G (5D, 7F)
 Ernie: Thresh=  0.10000D-02 Tol=  0.10000D-05 Strict=F.
    29 basis functions,    87 primitive gaussians,    29 cartesian basis functions
    18 alpha electrons       18 beta electrons
       nuclear repulsion energy       157.6545175917 Hartrees.
 IExCor=    0 DFT=F Ex=HF Corr=None ExCW=0 ScaHFX=  1.000000
 ScaDFX=  1.000000  1.000000  1.000000  1.000000 ScalE2=  1.000000  1.000000
 IRadAn=      0 IRanWt=     -1 IRanGd=            0 ICorTp=0 IEmpDi=  4
 NAtoms=   15 NActive=    9 NUniq=    9 SFac= 1.00D+00 NAtFMM=   60 NAOKFM=F Big=F
 Integral buffers will be    131072 words long.
 Raffenetti 1 integral format.
 Two-electron integral symmetry is turned off.
 Leave Link  301 at Tue Feb  7 16:43:26 2017, MaxMem=  1048576000 cpu:         0.5
 (Enter /mnt/data/applications/G09/g09/l402.exe)
 External calculation of energy and first derivatives.
 Running external command "./sictwo_files/sictwo_g09d01 M"
         input file       "/scratch/Gau-30976.EIn"
         output file      "/scratch/Gau-30976.EOu"
         message file     "/scratch/Gau-30976.EMs"
         fchk file        "/scratch/Gau-30976.EFC"
         mat. el file     "/scratch/Gau-30976.EUF"

---------------------------- SICTWO Version 1.0 STARTED -----------------------------

MM calculations started
MM calculations finished ....
Information recovery

---------------------------- SICTWO Version 1.0 FINISHED -----------------------------

 Recovered energy= 0.154490055344E-01 dipole=      0.736895032439     -0.221107852766      0.000000000000
 Energy=    1.544900553E-02 NIter=   0.
 Dipole moment=       0.736895      -0.221108       0.000000
 Leave Link  402 at Tue Feb  7 16:43:28 2017, MaxMem=  1048576000 cpu:        14.8
 (Enter /mnt/data/applications/G09/g09/l601.exe)
 Leave Link  601 at Tue Feb  7 16:43:28 2017, MaxMem=  1048576000 cpu:         0.2
 (Enter /mnt/data/applications/G09/g09/l716.exe)
 Dipole        = 7.36895032D-01-2.21107853D-01 0.00000000D+00
 Cartesian Forces:  Max     0.030912148 RMS     0.009668021
 Leave Link  716 at Tue Feb  7 16:43:28 2017, MaxMem=  1048576000 cpu:         0.2
 (Enter /mnt/data/applications/G09/g09/l120.exe)
 SvSCFP did not find density file   528.
 ONIOM: saving gridpoint  1
 ONIOM: restoring gridpoint  3
 ONIOM: calculating energy.
 ONIOM: gridpoint  1 method:  low   system:  model energy:     0.015449005534
 ONIOM: gridpoint  2 method:  high  system:  model energy:  -230.012530347161
 ONIOM: gridpoint  3 method:  low   system:  real  energy:     0.018808635163
 ONIOM: extrapolated energy =    -230.009170717533
 ONIOM: calculating first derivatives.
 ONIOM: calculating electric field derivatives.
 ONIOM: Integrating ONIOM file  4 number   619
 ONIOM: Dipole        = 2.52368325D-01 8.89885747D-02-3.24265903D-05
 ONIOM: Dipole moment (Debye):
    X=     0.6415    Y=     0.2262    Z=    -0.0001  Tot=     0.6802
 ONIOM: Integrating ONIOM file  5 number   695
 Nuclear Quadrupole Tensors: 
                 1             2             3             4             5 
      1   0.202172D+00  0.819817D-01  0.882003D-01 -0.105103D+00 -0.498143D-01
      2   0.183338D+00 -0.103597D-01  0.114047D-02 -0.271636D+00 -0.209034D+00
      3  -0.247428D+00  0.732784D-01  0.658229D-01  0.542715D-01 -0.111746D+00
      4   0.691228D-05 -0.206956D-04  0.000000D+00  0.154781D-04  0.266811D-04
      5  -0.238611D-04 -0.179943D-04 -0.138583D-04  0.656711D-05  0.284296D-04
      6   0.452558D-01 -0.155260D+00 -0.154023D+00  0.508318D-01  0.161560D+00
                 6             7             8             9            10 
      1  -0.142044D-01 -0.256347D+00  0.490649D+00  0.000000D+00  0.000000D+00
      2   0.214152D+00 -0.139830D+00 -0.590663D+00  0.000000D+00  0.000000D+00
      3  -0.147678D+00  0.944413D-01 -0.123519D+01  0.000000D+00  0.000000D+00
      4  -0.717023D-05  0.951407D-05  0.131354D-03  0.000000D+00  0.000000D+00
      5   0.837776D-05  0.450885D-05  0.564231D-04  0.000000D+00  0.000000D+00
      6   0.161882D+00  0.161905D+00  0.744545D+00  0.000000D+00  0.000000D+00
                11            12            13            14            15 
      1   0.000000D+00  0.000000D+00  0.000000D+00  0.000000D+00  0.000000D+00
      2   0.000000D+00  0.000000D+00  0.000000D+00  0.000000D+00  0.000000D+00
      3   0.000000D+00  0.000000D+00  0.000000D+00  0.000000D+00  0.000000D+00
      4   0.000000D+00  0.000000D+00  0.000000D+00  0.000000D+00  0.000000D+00
      5   0.000000D+00  0.000000D+00  0.000000D+00  0.000000D+00  0.000000D+00
      6   0.000000D+00  0.000000D+00  0.000000D+00  0.000000D+00  0.000000D+00
 Saving ESP charges from gridpoint 2
 Leave Link  120 at Tue Feb  7 16:43:28 2017, MaxMem=  1048576000 cpu:         0.0
 (Enter /mnt/data/applications/G09/g09/l716.exe)
 Dipole        = 2.52368325D-01 8.89885747D-02-3.24265903D-05
 -------------------------------------------------------------------
 Center     Atomic                   Forces (Hartrees/Bohr)
 Number     Number              X              Y              Z
 -------------------------------------------------------------------
      1        6           0.043530052    0.021411990    0.000005431
      2        6          -0.029608301    0.004565126    0.000005548
      3        6          -0.026671152    0.003620954   -0.000013513
      4        6           0.017947889   -0.019155501    0.000010640
      5        1          -0.002846648    0.012884269   -0.000002072
      6        1          -0.002346692    0.001224792    0.000000482
      7        1          -0.001900039   -0.001670526   -0.000000215
      8        8           0.005687742   -0.001187907   -0.000012559
      9        6           0.019243073   -0.029657800    0.000008619
     10        1          -0.008770542    0.001160798   -0.012459292
     11        1          -0.008772481    0.001163750    0.012457689
     12        6          -0.026042529   -0.006307187   -0.000000928
     13        1           0.010231891   -0.001381573   -0.011968830
     14        1           0.000087619    0.014708027   -0.000001602
     15        1           0.010230205   -0.001379128    0.011970601
 -------------------------------------------------------------------
 Cartesian Forces:  Max     0.043530052 RMS     0.013363761
 Leave Link  716 at Tue Feb  7 16:43:29 2017, MaxMem=  1048576000 cpu:         0.2
 (Enter /mnt/data/applications/G09/g09/l103.exe)

 GradGradGradGradGradGradGradGradGradGradGradGradGradGradGradGradGradGrad
 Berny optimization.
 FormGI is forming the generalized inverse of G from B-inverse, IUseBI=4.
 Internal  Forces:  Max     0.036327959 RMS     0.010606699
 Search for a local minimum.
 Step number   1 out of a maximum of   81
 All quantities printed in internal units (Hartrees-Bohrs-Radians)
 RMS Force = .10607D-01 SwitMx=.10000D-02 MixMth= 1
 Mixed Optimization -- RFO/linear search
 Second derivative matrix not updated -- first step.
 ITU=  0
     Eigenvalues ---    0.00237   0.00237   0.01058   0.01786   0.01826
     Eigenvalues ---    0.01889   0.01952   0.01997   0.04356   0.05410
     Eigenvalues ---    0.05720   0.05720   0.08669   0.12376   0.16000
     Eigenvalues ---    0.16000   0.16000   0.16000   0.16000   0.16000
     Eigenvalues ---    0.21983   0.22191   0.24050   0.25000   0.28519
     Eigenvalues ---    0.28519   0.34897   0.35418   0.35419   0.37230
     Eigenvalues ---    0.37230   0.37230   0.37230   0.37230   0.38263
     Eigenvalues ---    0.40583   0.44441   0.45742   0.46623
 RFO step:  Lambda=-2.34219789D-02 EMin= 2.36824067D-03
 Linear search not attempted -- first point.
 Iteration  1 RMS(Cart)=  0.11791710 RMS(Int)=  0.00563693
 Iteration  2 RMS(Cart)=  0.00825132 RMS(Int)=  0.00042861
 Iteration  3 RMS(Cart)=  0.00002786 RMS(Int)=  0.00042828
 Iteration  4 RMS(Cart)=  0.00000002 RMS(Int)=  0.00042828
 ITry= 1 IFail=0 DXMaxC= 3.38D-01 DCOld= 1.00D+10 DXMaxT= 3.00D-01 DXLimC= 3.00D+00 Rises=F
 Variable       Old X    -DE/DX   Delta X   Delta X   Delta X     New X
                                 (Linear)    (Quad)   (Total)
    R1        2.64892  -0.03633   0.00000  -0.07701  -0.07694   2.57199
    R2        2.05842  -0.00802   0.00000  -0.02154  -0.02154   2.03687
    R3        2.63012  -0.02672   0.00000  -0.05626  -0.05610   2.57402
    R4        2.71151  -0.01130   0.00000  -0.02459  -0.02471   2.68681
    R5        2.05001  -0.00238   0.00000  -0.00630  -0.00630   2.04371
    R6        2.64911  -0.02699   0.00000  -0.05481  -0.05495   2.59416
    R7        2.05000  -0.00234   0.00000  -0.00621  -0.00621   2.04379
    R8        2.63013  -0.02519   0.00000  -0.05161  -0.05158   2.57855
    R9        2.91018  -0.02121   0.00000  -0.06871  -0.06871   2.84147
   R10        2.02201   0.01491   0.00000   0.03768   0.03768   2.05968
   R11        2.02201   0.01491   0.00000   0.03768   0.03768   2.05968
   R12        2.91018  -0.00257   0.00000  -0.00832  -0.00832   2.90186
   R13        2.02201   0.01531   0.00000   0.03868   0.03868   2.06069
   R14        2.02201   0.01463   0.00000   0.03696   0.03696   2.05897
   R15        2.02201   0.01531   0.00000   0.03868   0.03868   2.06069
    A1        2.27063   0.00518   0.00000   0.03837   0.03828   2.30891
    A2        1.89225   0.01120   0.00000   0.04083   0.04101   1.93326
    A3        2.12031  -0.01638   0.00000  -0.07920  -0.07929   2.04101
    A4        1.87077  -0.00505   0.00000  -0.01891  -0.01896   1.85181
    A5        2.20681   0.00134   0.00000   0.00297   0.00299   2.20980
    A6        2.20561   0.00372   0.00000   0.01594   0.01597   2.22158
    A7        1.87074  -0.00454   0.00000  -0.01193  -0.01219   1.85856
    A8        2.20561   0.00129   0.00000   0.00064   0.00076   2.20638
    A9        2.20683   0.00325   0.00000   0.01130   0.01142   2.21825
   A10        1.89218   0.00629   0.00000   0.02522   0.02510   1.91728
   A11        2.27088   0.02310   0.00000   0.08339   0.08344   2.35433
   A12        2.12012  -0.02939   0.00000  -0.10860  -0.10854   2.01158
   A13        1.89884  -0.00789   0.00000  -0.03520  -0.03497   1.86388
   A14        1.91063  -0.00863   0.00000  -0.04187  -0.04310   1.86754
   A15        1.91063  -0.00863   0.00000  -0.04187  -0.04310   1.86754
   A16        1.91063   0.02230   0.00000   0.09721   0.09713   2.00777
   A17        1.91063   0.00292   0.00000  -0.00697  -0.00830   1.90233
   A18        1.91063  -0.00398   0.00000  -0.00325  -0.00262   1.90801
   A19        1.91063  -0.00398   0.00000  -0.00325  -0.00262   1.90801
   A20        1.91063   0.00453   0.00000   0.02649   0.02618   1.93682
   A21        1.91063   0.00016   0.00000  -0.00269  -0.00265   1.90798
   A22        1.91063   0.00453   0.00000   0.02649   0.02618   1.93682
   A23        1.91063  -0.00299   0.00000  -0.01987  -0.01983   1.89080
   A24        1.91063  -0.00325   0.00000  -0.01055  -0.01117   1.89947
   A25        1.91063  -0.00299   0.00000  -0.01987  -0.01983   1.89080
    D1       -3.14148   0.00000   0.00000  -0.00006  -0.00006  -3.14153
    D2        0.00009   0.00000   0.00000  -0.00002  -0.00002   0.00007
    D3        0.00001   0.00000   0.00000  -0.00002  -0.00002  -0.00002
    D4        3.14157   0.00000   0.00000   0.00002   0.00002   3.14159
    D5        0.00007   0.00000   0.00000  -0.00006  -0.00006   0.00000
    D6        3.14156   0.00000   0.00000  -0.00003  -0.00003   3.14153
    D7       -0.00008   0.00000   0.00000   0.00010   0.00010   0.00002
    D8       -3.14156   0.00000   0.00000   0.00000   0.00000  -3.14156
    D9        3.14154   0.00000   0.00000   0.00006   0.00006  -3.14158
   D10        0.00006   0.00000   0.00000  -0.00003  -0.00003   0.00002
   D11        0.00012  -0.00001   0.00000  -0.00014  -0.00014  -0.00002
   D12       -3.14146   0.00000   0.00000  -0.00009  -0.00009  -3.14155
   D13       -3.14158   0.00000   0.00000  -0.00004  -0.00004   3.14156
   D14        0.00003   0.00000   0.00000   0.00000   0.00000   0.00003
   D15       -0.00012   0.00001   0.00000   0.00013   0.00013   0.00001
   D16        3.14146   0.00000   0.00000   0.00009   0.00009   3.14155
   D17        2.09431   0.00350   0.00000   0.02988   0.02871   2.12302
   D18       -2.09448  -0.00350   0.00000  -0.02993  -0.02877  -2.12325
   D19       -0.00009   0.00000   0.00000  -0.00003  -0.00003  -0.00012
   D20       -1.04727   0.00350   0.00000   0.02992   0.02876  -1.01851
   D21        1.04713  -0.00350   0.00000  -0.02989  -0.02872   1.01841
   D22        3.14152   0.00000   0.00000   0.00002   0.00002   3.14154
   D23        1.04723   0.00079   0.00000   0.00976   0.00994   1.05717
   D24       -3.14156   0.00000   0.00000   0.00000   0.00000  -3.14156
   D25       -1.04716  -0.00079   0.00000  -0.00977  -0.00994  -1.05710
   D26       -1.04716   0.00014   0.00000   0.00350   0.00328  -1.04388
   D27        1.04723  -0.00065   0.00000  -0.00626  -0.00666   1.04058
   D28       -3.14156  -0.00144   0.00000  -0.01603  -0.01660   3.12503
   D29       -3.14156   0.00144   0.00000   0.01602   0.01659  -3.12497
   D30       -1.04716   0.00065   0.00000   0.00626   0.00665  -1.04051
   D31        1.04723  -0.00014   0.00000  -0.00351  -0.00329   1.04394
         Item               Value     Threshold  Converged?
 Maximum Force            0.036328     0.000450     NO 
 RMS     Force            0.010607     0.000300     NO 
 Maximum Displacement     0.337903     0.001800     NO 
 RMS     Displacement     0.120546     0.001200     NO 
 Predicted change in Energy=-1.261454D-02
 Lowest energy point so far.  Saving SCF results.
 GradGradGradGradGradGradGradGradGradGradGradGradGradGradGradGradGradGrad

 Leave Link  103 at Tue Feb  7 16:43:29 2017, MaxMem=  1048576000 cpu:         0.1
 (Enter /mnt/data/applications/G09/g09/l202.exe)
                          Input orientation:                          
 ---------------------------------------------------------------------
 Center     Atomic      Atomic             Coordinates (Angstroms)
 Number     Number       Type             X           Y           Z
 ---------------------------------------------------------------------
      1          6    10061000       -1.928374    0.248095    0.483732
      2          6    10061000       -0.571969    0.135913    0.483764
      3          6    10061000       -0.066414    1.464793    0.483658
      4          6    10061000       -1.158182    2.296985    0.483593
      5          1    10011000       -2.716917   -0.486751    0.483831
      6          1    10011000       -0.000721   -0.782392    0.483845
      7          1    10011000        0.975336    1.755409    0.483622
      8          8    10081000       -2.304731    1.557180    0.483632
      9          6    10061003       -1.356444    3.787496    0.483426
     10          1    10011000       -1.940490    4.031218   -0.403960
     11          1    10011000       -1.940644    4.031395    1.370663
     12          6    10061003       -0.062968    4.615133    0.483459
     13          1    10011000        0.535498    4.403980   -0.403318
     14          1    10011000       -0.313507    5.675495    0.483365
     15          1    10011000        0.535373    4.404108    1.370350
 ---------------------------------------------------------------------
                    Distance matrix (angstroms):
                    1          2          3          4          5
     1  C    0.000000
     2  C    1.361036   0.000000
     3  C    2.224241   1.421797   0.000000
     4  C    2.188869   2.239169   1.372771   0.000000
     5  H    1.077868   2.233498   3.291457   3.190430   0.000000
     6  H    2.185806   1.081485   2.248145   3.289723   2.732238
     7  H    3.271625   2.239848   1.081527   2.201182   4.319724
     8  O    1.362112   2.241085   2.240222   1.364510   2.085079
     9  C    3.585312   3.734897   2.656902   1.503639   4.485541
    10  H    3.885893   4.223068   3.299479   2.099362   4.669375
    11  H    3.885893   4.223108   3.299540   2.099361   4.669338
    12  C    4.748765   4.508048   3.150342   2.563845   5.750885
    13  H    4.912118   4.497754   3.128553   2.845099   5.940075
    14  H    5.662549   5.545608   4.217946   3.482499   6.614352
    15  H    4.912086   4.497747   3.128569   2.845071   5.940018
                    6          7          8          9         10
     6  H    0.000000
     7  H    2.719029   0.000000
     8  O    3.283604   3.286051   0.000000
     9  C    4.766745   3.092988   2.423542   0.000000
    10  H    5.265144   3.803833   2.653555   1.089938   0.000000
    11  H    5.265196   3.803931   2.653512   1.089938   1.774623
    12  C    5.397884   3.042383   3.791646   1.535599   2.157211
    13  H    5.288954   2.827551   4.117991   2.178489   2.503891
    14  H    6.465457   4.126522   4.574439   2.156909   2.477512
    15  H    5.288957   2.827624   4.117944   2.178490   3.068733
                   11         12         13         14         15
    11  H    0.000000
    12  C    2.157208   0.000000
    13  H    3.068730   1.090468   0.000000
    14  H    2.477486   1.089558   1.767417   0.000000
    15  H    2.503912   1.090468   1.773668   1.767418   0.000000
 Symmetry turned off by external request.
 Stoichiometry    C6H8O
 Framework group  C1[X(C6H8O)]
 Deg. of freedom    39
 Full point group                 C1      NOp   1
 Rotational constants (GHZ):      7.1562368      1.8967111      1.5280874
 Leave Link  202 at Tue Feb  7 16:43:29 2017, MaxMem=  1048576000 cpu:         0.0
 (Enter /mnt/data/applications/G09/g09/l120.exe)
 SvSCFP did not find density file   528.
 ONIOM: saving gridpoint 17
 ONIOM: restoring gridpoint  3
 ONIOM: restoring gridpoint  3 on chk file.
 ONIOM: generating point  3 -- low level on real system.
 Leave Link  120 at Tue Feb  7 16:43:29 2017, MaxMem=  1048576000 cpu:         0.0
 (Enter /mnt/data/applications/G09/g09/l301.exe)
 Standard basis: STO-3G (5D, 7F)
 Ernie: Thresh=  0.10000D-02 Tol=  0.10000D-05 Strict=F.
    43 basis functions,   129 primitive gaussians,    43 cartesian basis functions
    26 alpha electrons       26 beta electrons
       nuclear repulsion energy       288.1573847044 Hartrees.
 IExCor=    0 DFT=F Ex=HF Corr=None ExCW=0 ScaHFX=  1.000000
 ScaDFX=  1.000000  1.000000  1.000000  1.000000 ScalE2=  1.000000  1.000000
 IRadAn=      0 IRanWt=     -1 IRanGd=            0 ICorTp=0 IEmpDi=  4
 NAtoms=   15 NActive=   15 NUniq=   15 SFac= 1.00D+00 NAtFMM=   60 NAOKFM=F Big=F
 Integral buffers will be    131072 words long.
 Raffenetti 1 integral format.
 Two-electron integral symmetry is turned off.
 Leave Link  301 at Tue Feb  7 16:43:29 2017, MaxMem=  1048576000 cpu:         0.5
 (Enter /mnt/data/applications/G09/g09/l402.exe)
 External calculation of energy and first derivatives.
 Running external command "./sictwo_files/sictwo_g09d01 R"
         input file       "/scratch/Gau-30976.EIn"
         output file      "/scratch/Gau-30976.EOu"
         message file     "/scratch/Gau-30976.EMs"
         fchk file        "/scratch/Gau-30976.EFC"
         mat. el file     "/scratch/Gau-30976.EUF"

---------------------------- SICTWO Version 1.0 STARTED -----------------------------

MM calculations started
MM calculations finished ....
Information recovery

---------------------------- SICTWO Version 1.0 FINISHED -----------------------------

 Recovered energy= 0.124861825552E-01 dipole=      0.657028672810     -0.094816712663      0.000000000000
 Energy=    1.248618256E-02 NIter=   0.
 Dipole moment=       0.657029      -0.094817       0.000000
 Leave Link  402 at Tue Feb  7 16:43:32 2017, MaxMem=  1048576000 cpu:        18.6
 (Enter /mnt/data/applications/G09/g09/l716.exe)
 Dipole        = 6.57028673D-01-9.48167127D-02 0.00000000D+00
 Cartesian Forces:  Max     0.024556809 RMS     0.009058916
 Leave Link  716 at Tue Feb  7 16:43:32 2017, MaxMem=  1048576000 cpu:         0.2
 (Enter /mnt/data/applications/G09/g09/l120.exe)
 SvSCFP did not find density file   528.
 ONIOM: saving gridpoint  3
 ONIOM: restoring gridpoint  2
 ONIOM: restoring gridpoint  2 on chk file.
 ONIOM: generating point  2 -- high level on model system.
 Leave Link  120 at Tue Feb  7 16:43:32 2017, MaxMem=  1048576000 cpu:         0.0
 (Enter /mnt/data/applications/G09/g09/l301.exe)
 Standard basis: 6-31G(d) (6D, 7F)
 Ernie: Thresh=  0.10000D-02 Tol=  0.10000D-05 Strict=F.
    83 basis functions,   156 primitive gaussians,    83 cartesian basis functions
    18 alpha electrons       18 beta electrons
       nuclear repulsion energy       160.7035390222 Hartrees.
 IExCor=  402 DFT=T Ex+Corr=B3LYP ExCW=0 ScaHFX=  0.200000
 ScaDFX=  0.800000  0.720000  1.000000  0.810000 ScalE2=  1.000000  1.000000
 IRadAn=      0 IRanWt=     -1 IRanGd=            0 ICorTp=0 IEmpDi=  4
 NAtoms=   15 NActive=    9 NUniq=    9 SFac= 1.00D+00 NAtFMM=   60 NAOKFM=F Big=F
 Integral buffers will be    131072 words long.
 Raffenetti 2 integral format.
 Two-electron integral symmetry is turned off.
 Leave Link  301 at Tue Feb  7 16:43:32 2017, MaxMem=  1048576000 cpu:         0.5
 (Enter /mnt/data/applications/G09/g09/l302.exe)
 NPDir=0 NMtPBC=     1 NCelOv=     1 NCel=       1 NClECP=     1 NCelD=      1
         NCelK=      1 NCelE2=     1 NClLst=     1 CellRange=     0.0.
 One-electron integrals computed using PRISM.
 NBasis=    83 RedAO= T EigKep=  1.15D-03  NBF=    83
 NBsUse=    83 1.00D-06 EigRej= -1.00D+00 NBFU=    83
 Precomputing XC quadrature grid using
 IXCGrd= 4 IRadAn=           0 IRanWt=          -1 IRanGd=           0 AccXCQ= 0.00D+00.
 Generated NRdTot=       0 NPtTot=           0 NUsed=           0 NTot=          32
 NSgBfM=    83    83    83    83    83 MxSgAt=     9 MxSgA2=     9.
 Leave Link  302 at Tue Feb  7 16:43:32 2017, MaxMem=  1048576000 cpu:         1.4
 (Enter /mnt/data/applications/G09/g09/l303.exe)
 DipDrv:  MaxL=1.
 Leave Link  303 at Tue Feb  7 16:43:32 2017, MaxMem=  1048576000 cpu:         0.3
 (Enter /mnt/data/applications/G09/g09/l401.exe)
 Initial guess from the checkpoint file:  "F_3.chk"
 B after Tr=    -0.075051   -0.162487    0.000056
         Rot=    0.999516    0.000017    0.000005    0.031112 Ang=   3.57 deg.
 Guess basis will be translated and rotated to current coordinates.
 JPrj=2 DoOrth=T DoCkMO=T.
 Generating alternative initial guess.
 ExpMin= 1.61D-01 ExpMax= 5.48D+03 ExpMxC= 8.25D+02 IAcc=1 IRadAn=         1 AccDes= 0.00D+00
 Harris functional with IExCor=  402 and IRadAn=       1 diagonalized for initial guess.
 HarFok:  IExCor=  402 AccDes= 0.00D+00 IRadAn=         1 IDoV= 1 UseB2=F ITyADJ=14
 ICtDFT=  3500011 ScaDFX=  1.000000  1.000000  1.000000  1.000000
 FoFCou: FMM=F IPFlag=           0 FMFlag=      100000 FMFlg1=           0
         NFxFlg=           0 DoJE=T BraDBF=F KetDBF=T FulRan=T
         wScrn=  0.000000 ICntrl=     500 IOpCl=  0 I1Cent=   200000004 NGrid=           0
         NMat0=    1 NMatS0=      1 NMatT0=    0 NMatD0=    1 NMtDS0=    0 NMtDT0=    0
 Symmetry not used in FoFCou.
 Harris En= -230.028608625092    
 Leave Link  401 at Tue Feb  7 16:43:33 2017, MaxMem=  1048576000 cpu:         2.7
 (Enter /mnt/data/applications/G09/g09/l502.exe)
 Closed shell SCF:
 Using DIIS extrapolation, IDIIS=  1040.
 Two-electron integral symmetry not used.
 Keep R1 ints in memory in canonical form, NReq=7014464.
 IVT=       33885 IEndB=       33885 NGot=  1048576000 MDV=  1042464275
 LenX=  1042464275 LenY=  1042456945
 Requested convergence on RMS density matrix=1.00D-08 within 100 cycles.
 Requested convergence on MAX density matrix=1.00D-06.
 Requested convergence on             energy=1.00D-06.
 No special actions if energy rises.
 FoFCou: FMM=F IPFlag=           0 FMFlag=           0 FMFlg1=           0
         NFxFlg=           0 DoJE=F BraDBF=F KetDBF=F FulRan=T
         wScrn=  0.000000 ICntrl=     600 IOpCl=  0 I1Cent=           0 NGrid=           0
         NMat0=    1 NMatS0=   3486 NMatT0=    0 NMatD0=    1 NMtDS0=    0 NMtDT0=    0
 Symmetry not used in FoFCou.
 Integral accuracy reduced to 1.0D-05 until final iterations.

 Cycle   1  Pass 0  IDiag  1:
 E= -230.018292463368    
 DIIS: error= 3.74D-03 at cycle   1 NSaved=   1.
 NSaved= 1 IEnMin= 1 EnMin= -230.018292463368     IErMin= 1 ErrMin= 3.74D-03
 ErrMax= 3.74D-03  0.00D+00 EMaxC= 1.00D-01 BMatC= 1.46D-03 BMatP= 1.46D-03
 IDIUse=3 WtCom= 9.63D-01 WtEn= 3.74D-02
 Coeff-Com:  0.100D+01
 Coeff-En:   0.100D+01
 Coeff:      0.100D+01
 Gap=     1.501 Goal=   None    Shift=    0.000
 GapD=    1.501 DampG=2.000 DampE=1.000 DampFc=2.0000 IDamp=-1.
 RMSDP=6.86D-04 MaxDP=8.19D-03              OVMax= 1.02D-02

 Cycle   2  Pass 0  IDiag  1:
 E= -230.019860094324     Delta-E=       -0.001567630956 Rises=F Damp=F
 DIIS: error= 1.98D-03 at cycle   2 NSaved=   2.
 NSaved= 2 IEnMin= 2 EnMin= -230.019860094324     IErMin= 2 ErrMin= 1.98D-03
 ErrMax= 1.98D-03  0.00D+00 EMaxC= 1.00D-01 BMatC= 2.60D-04 BMatP= 1.46D-03
 IDIUse=3 WtCom= 9.80D-01 WtEn= 1.98D-02
 Coeff-Com:  0.234D+00 0.766D+00
 Coeff-En:   0.000D+00 0.100D+01
 Coeff:      0.229D+00 0.771D+00
 Gap=     0.240 Goal=   None    Shift=    0.000
 RMSDP=2.95D-04 MaxDP=4.45D-03 DE=-1.57D-03 OVMax= 5.80D-03

 Cycle   3  Pass 0  IDiag  1:
 E= -230.020039012833     Delta-E=       -0.000178918509 Rises=F Damp=F
 DIIS: error= 9.76D-04 at cycle   3 NSaved=   3.
 NSaved= 3 IEnMin= 3 EnMin= -230.020039012833     IErMin= 3 ErrMin= 9.76D-04
 ErrMax= 9.76D-04  0.00D+00 EMaxC= 1.00D-01 BMatC= 8.31D-05 BMatP= 2.60D-04
 IDIUse=3 WtCom= 9.90D-01 WtEn= 9.76D-03
 Coeff-Com: -0.534D-02 0.356D+00 0.650D+00
 Coeff-En:   0.000D+00 0.215D+00 0.785D+00
 Coeff:     -0.528D-02 0.354D+00 0.651D+00
 Gap=     0.241 Goal=   None    Shift=    0.000
 RMSDP=1.19D-04 MaxDP=2.08D-03 DE=-1.79D-04 OVMax= 2.61D-03

 Cycle   4  Pass 0  IDiag  1:
 E= -230.020118335915     Delta-E=       -0.000079323081 Rises=F Damp=F
 DIIS: error= 2.05D-04 at cycle   4 NSaved=   4.
 NSaved= 4 IEnMin= 4 EnMin= -230.020118335915     IErMin= 4 ErrMin= 2.05D-04
 ErrMax= 2.05D-04  0.00D+00 EMaxC= 1.00D-01 BMatC= 4.25D-06 BMatP= 8.31D-05
 IDIUse=3 WtCom= 9.98D-01 WtEn= 2.05D-03
 Coeff-Com: -0.632D-02 0.174D+00 0.349D+00 0.483D+00
 Coeff-En:   0.000D+00 0.000D+00 0.000D+00 0.100D+01
 Coeff:     -0.631D-02 0.174D+00 0.348D+00 0.484D+00
 Gap=     0.241 Goal=   None    Shift=    0.000
 RMSDP=3.08D-05 MaxDP=6.63D-04 DE=-7.93D-05 OVMax= 1.28D-03

 Cycle   5  Pass 0  IDiag  1:
 E= -230.020121921183     Delta-E=       -0.000003585269 Rises=F Damp=F
 DIIS: error= 1.03D-04 at cycle   5 NSaved=   5.
 NSaved= 5 IEnMin= 5 EnMin= -230.020121921183     IErMin= 5 ErrMin= 1.03D-04
 ErrMax= 1.03D-04  0.00D+00 EMaxC= 1.00D-01 BMatC= 7.75D-07 BMatP= 4.25D-06
 IDIUse=3 WtCom= 9.99D-01 WtEn= 1.03D-03
 Coeff-Com: -0.325D-02 0.281D-01 0.735D-01 0.307D+00 0.595D+00
 Coeff-En:   0.000D+00 0.000D+00 0.000D+00 0.173D+00 0.827D+00
 Coeff:     -0.324D-02 0.281D-01 0.734D-01 0.307D+00 0.595D+00
 Gap=     0.241 Goal=   None    Shift=    0.000
 RMSDP=1.06D-05 MaxDP=1.75D-04 DE=-3.59D-06 OVMax= 3.71D-04

 Cycle   6  Pass 0  IDiag  1:
 E= -230.020122633940     Delta-E=       -0.000000712757 Rises=F Damp=F
 DIIS: error= 2.38D-05 at cycle   6 NSaved=   6.
 NSaved= 6 IEnMin= 6 EnMin= -230.020122633940     IErMin= 6 ErrMin= 2.38D-05
 ErrMax= 2.38D-05  0.00D+00 EMaxC= 1.00D-01 BMatC= 5.05D-08 BMatP= 7.75D-07
 IDIUse=1 WtCom= 1.00D+00 WtEn= 0.00D+00
 Coeff-Com: -0.152D-02 0.763D-02 0.260D-01 0.160D+00 0.350D+00 0.458D+00
 Coeff:     -0.152D-02 0.763D-02 0.260D-01 0.160D+00 0.350D+00 0.458D+00
 Gap=     0.241 Goal=   None    Shift=    0.000
 RMSDP=2.20D-06 MaxDP=5.32D-05 DE=-7.13D-07 OVMax= 6.45D-05

 Initial convergence to 1.0D-05 achieved.  Increase integral accuracy.
 Cycle   7  Pass 1  IDiag  1:
 E= -230.020137161284     Delta-E=       -0.000014527344 Rises=F Damp=F
 DIIS: error= 9.75D-06 at cycle   1 NSaved=   1.
 NSaved= 1 IEnMin= 1 EnMin= -230.020137161284     IErMin= 1 ErrMin= 9.75D-06
 ErrMax= 9.75D-06  0.00D+00 EMaxC= 1.00D-01 BMatC= 1.48D-08 BMatP= 1.48D-08
 IDIUse=1 WtCom= 1.00D+00 WtEn= 0.00D+00
 Coeff-Com:  0.100D+01
 Coeff:      0.100D+01
 Gap=     0.241 Goal=   None    Shift=    0.000
 RMSDP=2.20D-06 MaxDP=5.32D-05 DE=-1.45D-05 OVMax= 4.33D-05

 Cycle   8  Pass 1  IDiag  1:
 E= -230.020137172754     Delta-E=       -0.000000011470 Rises=F Damp=F
 DIIS: error= 8.88D-06 at cycle   2 NSaved=   2.
 NSaved= 2 IEnMin= 2 EnMin= -230.020137172754     IErMin= 2 ErrMin= 8.88D-06
 ErrMax= 8.88D-06  0.00D+00 EMaxC= 1.00D-01 BMatC= 6.16D-09 BMatP= 1.48D-08
 IDIUse=1 WtCom= 1.00D+00 WtEn= 0.00D+00
 Coeff-Com:  0.337D+00 0.663D+00
 Coeff:      0.337D+00 0.663D+00
 Gap=     0.241 Goal=   None    Shift=    0.000
 RMSDP=1.42D-06 MaxDP=2.63D-05 DE=-1.15D-08 OVMax= 5.87D-05

 Cycle   9  Pass 1  IDiag  1:
 E= -230.020137173589     Delta-E=       -0.000000000835 Rises=F Damp=F
 DIIS: error= 7.78D-06 at cycle   3 NSaved=   3.
 NSaved= 3 IEnMin= 3 EnMin= -230.020137173589     IErMin= 3 ErrMin= 7.78D-06
 ErrMax= 7.78D-06  0.00D+00 EMaxC= 1.00D-01 BMatC= 5.29D-09 BMatP= 6.16D-09
 IDIUse=1 WtCom= 1.00D+00 WtEn= 0.00D+00
 Coeff-Com: -0.201D-01 0.485D+00 0.535D+00
 Coeff:     -0.201D-01 0.485D+00 0.535D+00
 Gap=     0.241 Goal=   None    Shift=    0.000
 RMSDP=7.16D-07 MaxDP=1.40D-05 DE=-8.35D-10 OVMax= 2.54D-05

 Cycle  10  Pass 1  IDiag  1:
 E= -230.020137178096     Delta-E=       -0.000000004507 Rises=F Damp=F
 DIIS: error= 1.19D-06 at cycle   4 NSaved=   4.
 NSaved= 4 IEnMin= 4 EnMin= -230.020137178096     IErMin= 4 ErrMin= 1.19D-06
 ErrMax= 1.19D-06  0.00D+00 EMaxC= 1.00D-01 BMatC= 7.47D-11 BMatP= 5.29D-09
 IDIUse=1 WtCom= 1.00D+00 WtEn= 0.00D+00
 Coeff-Com: -0.163D-01 0.267D+00 0.303D+00 0.446D+00
 Coeff:     -0.163D-01 0.267D+00 0.303D+00 0.446D+00
 Gap=     0.241 Goal=   None    Shift=    0.000
 RMSDP=1.28D-07 MaxDP=2.47D-06 DE=-4.51D-09 OVMax= 4.88D-06

 Cycle  11  Pass 1  IDiag  1:
 E= -230.020137178167     Delta-E=       -0.000000000071 Rises=F Damp=F
 DIIS: error= 2.92D-07 at cycle   5 NSaved=   5.
 NSaved= 5 IEnMin= 5 EnMin= -230.020137178167     IErMin= 5 ErrMin= 2.92D-07
 ErrMax= 2.92D-07  0.00D+00 EMaxC= 1.00D-01 BMatC= 7.35D-12 BMatP= 7.47D-11
 IDIUse=1 WtCom= 1.00D+00 WtEn= 0.00D+00
 Coeff-Com: -0.509D-02 0.596D-01 0.677D-01 0.252D+00 0.626D+00
 Coeff:     -0.509D-02 0.596D-01 0.677D-01 0.252D+00 0.626D+00
 Gap=     0.241 Goal=   None    Shift=    0.000
 RMSDP=3.20D-08 MaxDP=6.64D-07 DE=-7.05D-11 OVMax= 1.25D-06

 Cycle  12  Pass 1  IDiag  1:
 E= -230.020137178172     Delta-E=       -0.000000000005 Rises=F Damp=F
 DIIS: error= 7.05D-08 at cycle   6 NSaved=   6.
 NSaved= 6 IEnMin= 6 EnMin= -230.020137178172     IErMin= 6 ErrMin= 7.05D-08
 ErrMax= 7.05D-08  0.00D+00 EMaxC= 1.00D-01 BMatC= 5.42D-13 BMatP= 7.35D-12
 IDIUse=1 WtCom= 1.00D+00 WtEn= 0.00D+00
 Coeff-Com: -0.199D-02 0.199D-01 0.221D-01 0.121D+00 0.349D+00 0.491D+00
 Coeff:     -0.199D-02 0.199D-01 0.221D-01 0.121D+00 0.349D+00 0.491D+00
 Gap=     0.241 Goal=   None    Shift=    0.000
 RMSDP=9.16D-09 MaxDP=2.02D-07 DE=-5.46D-12 OVMax= 3.43D-07

 SCF Done:  E(RB3LYP) =  -230.020137178     A.U. after   12 cycles
            NFock= 12  Conv=0.92D-08     -V/T= 2.0094
 KE= 2.278748742800D+02 PE=-8.570091355104D+02 EE= 2.384105850300D+02
 Leave Link  502 at Tue Feb  7 16:43:35 2017, MaxMem=  1048576000 cpu:        13.3
 (Enter /mnt/data/applications/G09/g09/l701.exe)
 Compute integral first derivatives.
 ... and contract with generalized density number  0.
 Leave Link  701 at Tue Feb  7 16:43:35 2017, MaxMem=  1048576000 cpu:         1.2
 (Enter /mnt/data/applications/G09/g09/l702.exe)
 L702 exits ... SP integral derivatives will be done elsewhere.
 Leave Link  702 at Tue Feb  7 16:43:35 2017, MaxMem=  1048576000 cpu:         0.2
 (Enter /mnt/data/applications/G09/g09/l703.exe)
 Compute integral first derivatives, UseDBF=F ICtDFT=           0.
 Integral derivatives from FoFJK, PRISM(SPDF).
 Calling FoFJK, ICntrl=      2127 FMM=F ISym2X=0 I1Cent= 0 IOpClX= 0 NMat=1 NMatS=1 NMatT=0.
 FoFJK:  IHMeth= 1 ICntrl=    2127 DoSepK=F KAlg= 0 I1Cent=   0 FoldK=F
 IRaf=         0 NMat=   1 IRICut=       1 DoRegI=T DoRafI=F ISym2E= 0.
 FoFCou: FMM=F IPFlag=           0 FMFlag=      100000 FMFlg1=         800
         NFxFlg=           0 DoJE=F BraDBF=F KetDBF=F FulRan=T
         wScrn=  0.000000 ICntrl=    2127 IOpCl=  0 I1Cent=           0 NGrid=           0
         NMat0=    1 NMatS0=      1 NMatT0=    0 NMatD0=    1 NMtDS0=    0 NMtDT0=    0
 Symmetry not used in FoFCou.
 Leave Link  703 at Tue Feb  7 16:43:36 2017, MaxMem=  1048576000 cpu:         4.8
 (Enter /mnt/data/applications/G09/g09/l716.exe)
 Dipole        = 2.32119214D-01-9.54098341D-02 8.93227457D-06
 Cartesian Forces:  Max     0.014176257 RMS     0.002784865
 Leave Link  716 at Tue Feb  7 16:43:36 2017, MaxMem=  1048576000 cpu:         0.2
 (Enter /mnt/data/applications/G09/g09/l120.exe)
 SvSCFP is copying densities from files   528 and   530 to   603.
 ONIOM: saving gridpoint  2
 ONIOM: restoring gridpoint  1
 ONIOM: restoring gridpoint  1 on chk file.
 ONIOM: generating point  1 -- low level on model system.
 Leave Link  120 at Tue Feb  7 16:43:36 2017, MaxMem=  1048576000 cpu:         0.2
 (Enter /mnt/data/applications/G09/g09/l301.exe)
 Standard basis: STO-3G (5D, 7F)
 Ernie: Thresh=  0.10000D-02 Tol=  0.10000D-05 Strict=F.
    29 basis functions,    87 primitive gaussians,    29 cartesian basis functions
    18 alpha electrons       18 beta electrons
       nuclear repulsion energy       160.7035390222 Hartrees.
 IExCor=    0 DFT=F Ex=HF Corr=None ExCW=0 ScaHFX=  1.000000
 ScaDFX=  1.000000  1.000000  1.000000  1.000000 ScalE2=  1.000000  1.000000
 IRadAn=      0 IRanWt=     -1 IRanGd=            0 ICorTp=0 IEmpDi=  4
 NAtoms=   15 NActive=    9 NUniq=    9 SFac= 1.00D+00 NAtFMM=   60 NAOKFM=F Big=F
 Integral buffers will be    131072 words long.
 Raffenetti 1 integral format.
 Two-electron integral symmetry is turned off.
 Leave Link  301 at Tue Feb  7 16:43:36 2017, MaxMem=  1048576000 cpu:         0.5
 (Enter /mnt/data/applications/G09/g09/l402.exe)
 External calculation of energy and first derivatives.
 Running external command "./sictwo_files/sictwo_g09d01 M"
         input file       "/scratch/Gau-30976.EIn"
         output file      "/scratch/Gau-30976.EOu"
         message file     "/scratch/Gau-30976.EMs"
         fchk file        "/scratch/Gau-30976.EFC"
         mat. el file     "/scratch/Gau-30976.EUF"

---------------------------- SICTWO Version 1.0 STARTED -----------------------------

MM calculations started
MM calculations finished ....
Information recovery

---------------------------- SICTWO Version 1.0 FINISHED -----------------------------

 Recovered energy= 0.129900791914E-01 dipole=      0.679454202361     -0.262024608438      0.000000000000
 Energy=    1.299007919E-02 NIter=   0.
 Dipole moment=       0.679454      -0.262025       0.000000
 Leave Link  402 at Tue Feb  7 16:43:38 2017, MaxMem=  1048576000 cpu:        15.3
 (Enter /mnt/data/applications/G09/g09/l716.exe)
 Dipole        = 6.79454202D-01-2.62024608D-01 0.00000000D+00
 Cartesian Forces:  Max     0.024515909 RMS     0.008255550
 Leave Link  716 at Tue Feb  7 16:43:39 2017, MaxMem=  1048576000 cpu:         0.2
 (Enter /mnt/data/applications/G09/g09/l120.exe)
 SvSCFP did not find density file   528.
 ONIOM: saving gridpoint  1
 ONIOM: restoring gridpoint  3
 ONIOM: calculating energy.
 ONIOM: gridpoint  1 method:  low   system:  model energy:     0.012990079191
 ONIOM: gridpoint  2 method:  high  system:  model energy:  -230.020137178172
 ONIOM: gridpoint  3 method:  low   system:  real  energy:     0.012486182555
 ONIOM: extrapolated energy =    -230.020641074809
 ONIOM: calculating first derivatives.
 ONIOM: calculating electric field derivatives.
 ONIOM: Integrating ONIOM file  4 number   619
 ONIOM: Dipole        = 2.09693685D-01 7.17980617D-02 8.93227457D-06
 ONIOM: Dipole moment (Debye):
    X=     0.5330    Y=     0.1825    Z=     0.0000  Tot=     0.5634
 ONIOM: Integrating ONIOM file  5 number   695
 Leave Link  120 at Tue Feb  7 16:43:39 2017, MaxMem=  1048576000 cpu:         0.0
 (Enter /mnt/data/applications/G09/g09/l716.exe)
 Dipole        = 2.09693685D-01 7.17980617D-02 8.93227457D-06
 -------------------------------------------------------------------
 Center     Atomic                   Forces (Hartrees/Bohr)
 Number     Number              X              Y              Z
 -------------------------------------------------------------------
      1        6           0.000615700   -0.003248404    0.000003968
      2        6          -0.003289111   -0.005009258   -0.000001318
      3        6          -0.000865386    0.009413653   -0.000000334
      4        6           0.007473890    0.010727011   -0.000004378
      5        1          -0.002735793    0.001339769   -0.000001695
      6        1          -0.000399146    0.000143877   -0.000000003
      7        1          -0.000307609    0.001094709    0.000000748
      8        8           0.001549272   -0.005643172    0.000001399
      9        6           0.008813188   -0.005669315    0.000002035
     10        1          -0.002540011    0.002081173   -0.001836026
     11        1          -0.002540348    0.002081426    0.001835267
     12        6          -0.009750959   -0.008731666    0.000000084
     13        1           0.001834677   -0.000824744   -0.001559256
     14        1           0.000307213    0.003069264   -0.000000337
     15        1           0.001834340   -0.000824407    0.001559762
 -------------------------------------------------------------------
 Cartesian Forces:  Max     0.010727011 RMS     0.003898854
 Leave Link  716 at Tue Feb  7 16:43:39 2017, MaxMem=  1048576000 cpu:         0.2
 (Enter /mnt/data/applications/G09/g09/l103.exe)

 GradGradGradGradGradGradGradGradGradGradGradGradGradGradGradGradGradGrad
 Berny optimization.
 Using GEDIIS/GDIIS optimizer.
 FormGI is forming the generalized inverse of G from B-inverse, IUseBI=4.
 Internal  Forces:  Max     0.009109114 RMS     0.002637977
 Search for a local minimum.
 Step number   2 out of a maximum of   81
 All quantities printed in internal units (Hartrees-Bohrs-Radians)
 RMS Force = .26380D-02 SwitMx=.10000D-02 MixMth= 1
 Mixed Optimization -- RFO/linear search
 Update second derivatives using D2CorX and points    1    2
 DE= -1.15D-02 DEPred=-1.26D-02 R= 9.09D-01
 TightC=F SS=  1.41D+00  RLast= 2.80D-01 DXNew= 5.0454D-01 8.4057D-01
 Trust test= 9.09D-01 RLast= 2.80D-01 DXMaxT set to 5.05D-01
 ITU=  1  0
 Use linear search instead of GDIIS.
     Eigenvalues ---    0.00237   0.00237   0.01092   0.01786   0.01826
     Eigenvalues ---    0.01892   0.01953   0.02005   0.03775   0.05229
     Eigenvalues ---    0.05460   0.05649   0.09671   0.12981   0.15454
     Eigenvalues ---    0.16000   0.16000   0.16000   0.16000   0.16049
     Eigenvalues ---    0.22166   0.22894   0.24127   0.25891   0.28005
     Eigenvalues ---    0.29854   0.35009   0.35383   0.35421   0.35690
[...]
     12        6          -0.000061982   -0.000019396    0.000000169
     13        1          -0.000017794    0.000007168    0.000015011
     14        1           0.000009192   -0.000026227    0.000000000
     15        1          -0.000017709    0.000007337   -0.000015011
 -------------------------------------------------------------------
 Cartesian Forces:  Max     0.000194848 RMS     0.000056076
 Leave Link  716 at Tue Feb  7 16:44:08 2017, MaxMem=  1048576000 cpu:         0.2
 (Enter /mnt/data/applications/G09/g09/l103.exe)

 GradGradGradGradGradGradGradGradGradGradGradGradGradGradGradGradGradGrad
 Berny optimization.
 Using GEDIIS/GDIIS optimizer.
 FormGI is forming the generalized inverse of G from B-inverse, IUseBI=4.
 Internal  Forces:  Max     0.000158327 RMS     0.000040578
 Search for a local minimum.
 Step number   5 out of a maximum of   81
 All quantities printed in internal units (Hartrees-Bohrs-Radians)
 RMS Force = .40578D-04 SwitMx=.10000D-02 MixMth= 2
 Mixed Optimization -- En-DIIS/RFO-DIIS
 Swapping is turned off.
 Update second derivatives using D2CorX and points    1    2    3    4    5
 DE= -2.81D-06 DEPred=-2.87D-06 R= 9.79D-01
 TightC=F SS=  1.41D+00  RLast= 6.17D-03 DXNew= 8.4853D-01 1.8511D-02
 Trust test= 9.79D-01 RLast= 6.17D-03 DXMaxT set to 5.05D-01
 ITU=  1  1  1  1  0
     Eigenvalues ---    0.00237   0.00237   0.01089   0.01786   0.01826
     Eigenvalues ---    0.01891   0.01952   0.02008   0.03857   0.04589
     Eigenvalues ---    0.05439   0.05514   0.09307   0.12871   0.13796
     Eigenvalues ---    0.15393   0.16000   0.16001   0.16020   0.16094
     Eigenvalues ---    0.22122   0.23200   0.26049   0.27021   0.29044
     Eigenvalues ---    0.33410   0.34997   0.35394   0.35430   0.35805
     Eigenvalues ---    0.37230   0.37230   0.37230   0.37278   0.39647
     Eigenvalues ---    0.41082   0.44845   0.47562   0.52525
 En-DIIS/RFO-DIIS IScMMF=        0 using points:     5    4    3
 RFO step:  Lambda=-2.18563602D-07.
 NNeg= 0 NP= 3 Switch=  2.50D-03 Rises=F DC=  8.37D-05 SmlDif=  1.00D-05
 RMS Error=  0.7920302082D-04 NUsed= 3 EDIIS=F
 DidBck=F Rises=F RFO-DIIS coefs:    1.02104   -0.01852   -0.00252
 Iteration  1 RMS(Cart)=  0.00030727 RMS(Int)=  0.00000005
 Iteration  2 RMS(Cart)=  0.00000008 RMS(Int)=  0.00000003
 ITry= 1 IFail=0 DXMaxC= 1.05D-03 DCOld= 1.00D+10 DXMaxT= 5.05D-01 DXLimC= 3.00D+00 Rises=F
 Variable       Old X    -DE/DX   Delta X   Delta X   Delta X     New X
                                 (Linear)    (Quad)   (Total)
    R1        2.57040  -0.00016   0.00001  -0.00037  -0.00036   2.57004
    R2        2.03962  -0.00001   0.00000  -0.00003  -0.00003   2.03960
    R3        2.57068   0.00006   0.00002   0.00017   0.00019   2.57088
    R4        2.70780   0.00003  -0.00002  -0.00002  -0.00003   2.70777
    R5        2.04267   0.00000   0.00000   0.00000  -0.00001   2.04266
    R6        2.58464  -0.00010   0.00001  -0.00025  -0.00025   2.58439
    R7        2.04395  -0.00001   0.00000  -0.00001  -0.00001   2.04394
    R8        2.58673   0.00002   0.00003   0.00012   0.00015   2.58688
    R9        2.81096   0.00004  -0.00001   0.00007   0.00006   2.81102
   R10        2.07070  -0.00002  -0.00001  -0.00008  -0.00009   2.07061
   R11        2.07070  -0.00002  -0.00001  -0.00009  -0.00009   2.07061
   R12        2.86972  -0.00010  -0.00002  -0.00041  -0.00043   2.86929
   R13        2.07000  -0.00002  -0.00001  -0.00008  -0.00008   2.06992
   R14        2.06878  -0.00003  -0.00001  -0.00009  -0.00009   2.06869
   R15        2.07000  -0.00002  -0.00001  -0.00008  -0.00008   2.06992
    A1        2.33687   0.00002   0.00001   0.00005   0.00006   2.33693
    A2        1.92876  -0.00009   0.00002  -0.00037  -0.00036   1.92840
    A3        2.01755   0.00007  -0.00003   0.00033   0.00030   2.01785
    A4        1.85018   0.00005   0.00000   0.00019   0.00019   1.85037
    A5        2.21181   0.00001   0.00003   0.00019   0.00022   2.21203
    A6        2.22119  -0.00006  -0.00003  -0.00038  -0.00041   2.22078
    A7        1.86099   0.00006   0.00001   0.00022   0.00022   1.86121
    A8        2.20939  -0.00005  -0.00002  -0.00028  -0.00030   2.20908
    A9        2.21281  -0.00001   0.00001   0.00006   0.00008   2.21289
   A10        1.91057  -0.00011   0.00001  -0.00042  -0.00041   1.91016
   A11        2.35501   0.00004  -0.00003   0.00011   0.00008   2.35510
   A12        2.01760   0.00007   0.00002   0.00031   0.00033   2.01793
   A13        1.87427   0.00010  -0.00003   0.00039   0.00036   1.87463
   A14        1.88605  -0.00003   0.00001  -0.00016  -0.00015   1.88590
   A15        1.88605  -0.00003   0.00001  -0.00016  -0.00015   1.88590
   A16        1.98384   0.00007   0.00002   0.00040   0.00042   1.98426
   A17        1.88062   0.00000  -0.00007  -0.00036  -0.00043   1.88018
   A18        1.91218  -0.00001   0.00002   0.00012   0.00013   1.91231
   A19        1.91218  -0.00001   0.00002   0.00011   0.00013   1.91231
   A20        1.94289   0.00000   0.00003   0.00004   0.00006   1.94295
   A21        1.92309   0.00000   0.00003   0.00004   0.00007   1.92316
   A22        1.94289   0.00000   0.00003   0.00004   0.00007   1.94295
   A23        1.88394   0.00000  -0.00003  -0.00008  -0.00011   1.88382
   A24        1.88495   0.00001  -0.00003   0.00004   0.00002   1.88496
   A25        1.88394   0.00000  -0.00003  -0.00008  -0.00011   1.88382
    D1       -3.14158   0.00000   0.00000  -0.00004  -0.00004   3.14156
    D2       -0.00001   0.00000   0.00000   0.00002   0.00002   0.00002
    D3        0.00004   0.00000   0.00000  -0.00011  -0.00011  -0.00007
    D4       -3.14158   0.00000   0.00000  -0.00005  -0.00005   3.14156
    D5       -0.00002   0.00000   0.00000   0.00007   0.00006   0.00004
    D6        3.14159   0.00000   0.00000   0.00001   0.00001  -3.14159
    D7       -0.00004   0.00000   0.00000   0.00012   0.00012   0.00008
    D8        3.14157   0.00000   0.00000   0.00005   0.00005  -3.14156
    D9        3.14157   0.00000   0.00000   0.00005   0.00005  -3.14156
   D10        0.00000   0.00000   0.00000  -0.00001  -0.00001  -0.00001
   D11        0.00003   0.00000   0.00000  -0.00008  -0.00008  -0.00006
   D12       -3.14157   0.00000   0.00000  -0.00005  -0.00005   3.14157
   D13       -3.14159   0.00000   0.00000  -0.00002  -0.00002   3.14158
   D14        0.00000   0.00000   0.00000   0.00002   0.00002   0.00002
   D15        0.00000   0.00000   0.00000   0.00001   0.00001   0.00001
   D16        3.14159   0.00000   0.00000  -0.00001  -0.00001   3.14158
   D17        2.12623   0.00002   0.00004   0.00025   0.00029   2.12653
   D18       -2.12645  -0.00002  -0.00004  -0.00034  -0.00038  -2.12683
   D19       -0.00011   0.00000   0.00000  -0.00004  -0.00004  -0.00016
   D20       -1.01536   0.00002   0.00004   0.00029   0.00033  -1.01503
   D21        1.01513  -0.00002  -0.00004  -0.00030  -0.00034   1.01479
   D22        3.14148   0.00000   0.00000  -0.00001  -0.00001   3.14147
   D23        1.05207   0.00000   0.00000   0.00005   0.00005   1.05212
   D24       -3.14157   0.00000   0.00000  -0.00001  -0.00001  -3.14158
   D25       -1.05203   0.00000   0.00000  -0.00006  -0.00006  -1.05209
   D26       -1.05970   0.00000  -0.00003  -0.00010  -0.00014  -1.05983
   D27        1.02984   0.00000  -0.00004  -0.00016  -0.00019   1.02965
   D28        3.11938  -0.00001  -0.00004  -0.00021  -0.00025   3.11913
   D29       -3.11934   0.00001   0.00004   0.00019   0.00023  -3.11911
   D30       -1.02980   0.00000   0.00004   0.00014   0.00018  -1.02963
   D31        1.05974   0.00000   0.00003   0.00009   0.00012   1.05986
         Item               Value     Threshold  Converged?
 Maximum Force            0.000158     0.000450     YES
 RMS     Force            0.000041     0.000300     YES
 Maximum Displacement     0.001048     0.001800     YES
 RMS     Displacement     0.000307     0.001200     YES
 Predicted change in Energy=-2.226950D-07
 Optimization completed.
    -- Stationary point found.
                           ----------------------------
                           !   Optimized Parameters   !
                           ! (Angstroms and Degrees)  !
 --------------------------                            --------------------------
 ! Name  Definition              Value          Derivative Info.                !
 --------------------------------------------------------------------------------
 ! R1    R(1,2)                  1.3602         -DE/DX =   -0.0002              !
 ! R2    R(1,5)                  1.0793         -DE/DX =    0.0                 !
 ! R3    R(1,8)                  1.3603         -DE/DX =    0.0001              !
 ! R4    R(2,3)                  1.4329         -DE/DX =    0.0                 !
 ! R5    R(2,6)                  1.0809         -DE/DX =    0.0                 !
 ! R6    R(3,4)                  1.3677         -DE/DX =   -0.0001              !
 ! R7    R(3,7)                  1.0816         -DE/DX =    0.0                 !
 ! R8    R(4,8)                  1.3688         -DE/DX =    0.0                 !
 ! R9    R(4,9)                  1.4875         -DE/DX =    0.0                 !
 ! R10   R(9,10)                 1.0958         -DE/DX =    0.0                 !
 ! R11   R(9,11)                 1.0958         -DE/DX =    0.0                 !
 ! R12   R(9,12)                 1.5186         -DE/DX =   -0.0001              !
 ! R13   R(12,13)                1.0954         -DE/DX =    0.0                 !
 ! R14   R(12,14)                1.0948         -DE/DX =    0.0                 !
 ! R15   R(12,15)                1.0954         -DE/DX =    0.0                 !
 ! A1    A(2,1,5)              133.893          -DE/DX =    0.0                 !
 ! A2    A(2,1,8)              110.5097         -DE/DX =   -0.0001              !
 ! A3    A(5,1,8)              115.5972         -DE/DX =    0.0001              !
 ! A4    A(1,2,3)              106.0077         -DE/DX =    0.0                 !
 ! A5    A(1,2,6)              126.7272         -DE/DX =    0.0                 !
 ! A6    A(3,2,6)              127.265          -DE/DX =   -0.0001              !
 ! A7    A(2,3,4)              106.6268         -DE/DX =    0.0001              !
 ! A8    A(2,3,7)              126.5885         -DE/DX =    0.0                 !
 ! A9    A(4,3,7)              126.7846         -DE/DX =    0.0                 !
 ! A10   A(3,4,8)              109.4677         -DE/DX =   -0.0001              !
 ! A11   A(3,4,9)              134.9323         -DE/DX =    0.0                 !
 ! A12   A(8,4,9)              115.6            -DE/DX =    0.0001              !
 ! A13   A(1,8,4)              107.388          -DE/DX =    0.0001              !
 ! A14   A(4,9,10)             108.0629         -DE/DX =    0.0                 !
 ! A15   A(4,9,11)             108.063          -DE/DX =    0.0                 !
 ! A16   A(4,9,12)             113.6656         -DE/DX =    0.0001              !
 ! A17   A(10,9,11)            107.7514         -DE/DX =    0.0                 !
 ! A18   A(10,9,12)            109.5599         -DE/DX =    0.0                 !
 ! A19   A(11,9,12)            109.5597         -DE/DX =    0.0                 !
 ! A20   A(9,12,13)            111.3193         -DE/DX =    0.0                 !
 ! A21   A(9,12,14)            110.1849         -DE/DX =    0.0                 !
 ! A22   A(9,12,15)            111.3193         -DE/DX =    0.0                 !
 ! A23   A(13,12,14)           107.9416         -DE/DX =    0.0                 !
 ! A24   A(13,12,15)           107.9994         -DE/DX =    0.0                 !
 ! A25   A(14,12,15)           107.9417         -DE/DX =    0.0                 !
 ! D1    D(5,1,2,3)            180.0009         -DE/DX =    0.0                 !
 ! D2    D(5,1,2,6)             -0.0004         -DE/DX =    0.0                 !
 ! D3    D(8,1,2,3)              0.0022         -DE/DX =    0.0                 !
 ! D4    D(8,1,2,6)            180.001          -DE/DX =    0.0                 !
 ! D5    D(2,1,8,4)             -0.0013         -DE/DX =    0.0                 !
 ! D6    D(5,1,8,4)           -180.0003         -DE/DX =    0.0                 !
 ! D7    D(1,2,3,4)             -0.0023         -DE/DX =    0.0                 !
 ! D8    D(1,2,3,7)           -180.0011         -DE/DX =    0.0                 !
 ! D9    D(6,2,3,4)           -180.001          -DE/DX =    0.0                 !
 ! D10   D(6,2,3,7)              0.0002         -DE/DX =    0.0                 !
 ! D11   D(2,3,4,8)              0.0015         -DE/DX =    0.0                 !
 ! D12   D(2,3,4,9)            180.0013         -DE/DX =    0.0                 !
 ! D13   D(7,3,4,8)            180.0003         -DE/DX =    0.0                 !
 ! D14   D(7,3,4,9)              0.0001         -DE/DX =    0.0                 !
 ! D15   D(3,4,8,1)             -0.0002         -DE/DX =    0.0                 !
 ! D16   D(9,4,8,1)            180.0            -DE/DX =    0.0                 !
 ! D17   D(3,4,9,10)           121.8242         -DE/DX =    0.0                 !
 ! D18   D(3,4,9,11)          -121.8369         -DE/DX =    0.0                 !
 ! D19   D(3,4,9,12)            -0.0064         -DE/DX =    0.0                 !
 ! D20   D(8,4,9,10)           -58.176          -DE/DX =    0.0                 !
 ! D21   D(8,4,9,11)            58.1629         -DE/DX =    0.0                 !
 ! D22   D(8,4,9,12)           179.9934         -DE/DX =    0.0                 !
 ! D23   D(4,9,12,13)           60.2793         -DE/DX =    0.0                 !
 ! D24   D(4,9,12,14)         -179.9989         -DE/DX =    0.0                 !
 ! D25   D(4,9,12,15)          -60.277          -DE/DX =    0.0                 !
 ! D26   D(10,9,12,13)         -60.7162         -DE/DX =    0.0                 !
 ! D27   D(10,9,12,14)          59.0056         -DE/DX =    0.0                 !
 ! D28   D(10,9,12,15)         178.7275         -DE/DX =    0.0                 !
 ! D29   D(11,9,12,13)        -178.7251         -DE/DX =    0.0                 !
 ! D30   D(11,9,12,14)         -59.0033         -DE/DX =    0.0                 !
 ! D31   D(11,9,12,15)          60.7186         -DE/DX =    0.0                 !
 --------------------------------------------------------------------------------
 Lowest energy point so far.  Saving SCF results.
 GradGradGradGradGradGradGradGradGradGradGradGradGradGradGradGradGradGrad

 Largest change from initial coordinates is atom    5       0.136 Angstoms.
 Leave Link  103 at Tue Feb  7 16:44:08 2017, MaxMem=  1048576000 cpu:         0.1
 (Enter /mnt/data/applications/G09/g09/l202.exe)
                          Input orientation:                          
 ---------------------------------------------------------------------
 Center     Atomic      Atomic             Coordinates (Angstroms)
 Number     Number       Type             X           Y           Z
 ---------------------------------------------------------------------
      1          6    10061000       -1.918864    0.248118    0.483782
      2          6    10061000       -0.562499    0.146099    0.483749
      3          6    10061000       -0.065158    1.489926    0.483638
      4          6    10061000       -1.158395    2.311826    0.483559
      5          1    10011000       -2.723403   -0.471364    0.483869
      6          1    10011000        0.017106   -0.766302    0.483816
      7          1    10011000        0.973088    1.793125    0.483602
      8          8    10081000       -2.298579    1.554396    0.483650
      9          6    10061003       -1.365319    3.784859    0.483408
     10          1    10011000       -1.956586    4.044801   -0.401772
     11          1    10011000       -1.956769    4.044959    1.368420
     12          6    10061003       -0.072755    4.581978    0.483473
     13          1    10011000        0.531864    4.360337   -0.402646
     14          1    10011000       -0.290582    5.654839    0.483377
     15          1    10011000        0.531697    4.360461    1.369738
 ---------------------------------------------------------------------
                    Distance matrix (angstroms):
                    1          2          3          4          5
     1  C    0.000000
     2  C    1.360197   0.000000
     3  C    2.231214   1.432906   0.000000
     4  C    2.199365   2.246212   1.367730   0.000000
     5  H    1.079322   2.247391   3.303472   3.193023   0.000000
     6  H    2.185641   1.080933   2.257728   3.294947   2.756334
     7  H    3.278786   2.251827   1.081612   2.193689   4.334969
     8  O    1.360348   2.235459   2.234351   1.368839   2.069825
     9  C    3.579798   3.726272   2.637638   1.487496   4.467642
    10  H    3.898773   4.234088   3.299823   2.103359   4.665631
    11  H    3.898720   4.234116   3.299882   2.103361   4.665547
    12  C    4.710675   4.462832   3.092060   2.516387   5.706329
    13  H    4.868487   4.443324   3.062873   2.799774   5.893047
    14  H    5.646586   5.515448   4.171009   3.453815   6.591584
    15  H    4.868422   4.443320   3.062904   2.799755   5.892959
                    6          7          8          9         10
     6  H    0.000000
     7  H    2.732137   0.000000
     8  O    3.278420   3.280366   0.000000
     9  C    4.756488   3.071670   2.417838   0.000000
    10  H    5.275077   3.799594   2.665154   1.095769   0.000000
    11  H    5.275124   3.799700   2.665062   1.095769   1.770193
    12  C    5.349035   2.978504   3.757731   1.518592   2.149660
    13  H    5.228118   2.751488   4.082920   2.171537   2.508376
    14  H    6.428510   4.063213   4.565708   2.156823   2.480178
    15  H    5.228132   2.751595   4.082844   2.171536   3.070739
                   11         12         13         14         15
    11  H    0.000000
    12  C    2.149658   0.000000
    13  H    3.070738   1.095398   0.000000
    14  H    2.480160   1.094752   1.771212   0.000000
    15  H    2.508387   1.095398   1.772384   1.771213   0.000000
 Symmetry turned off by external request.
 Stoichiometry    C6H8O
 Framework group  C1[X(C6H8O)]
 Deg. of freedom    39
 Full point group                 C1      NOp   1
 Rotational constants (GHZ):      7.1598484      1.9240997      1.5458868
 Leave Link  202 at Tue Feb  7 16:44:09 2017, MaxMem=  1048576000 cpu:         0.0
 (Enter /mnt/data/applications/G09/g09/l9999.exe)
 1\1\GINC-KIMIK2085\FOpt\ONIOM(B3LYP/6-31G(d):External='./sictwo_files/
 sictwo_g09d01')\Mixed\C6H8O1\IFUNES\07-Feb-2017\0\\#p opt=nomicro onio
 m(B3LYP/6-31G*:external="./sictwo_files/sictwo_g09d01") geom=connectiv
 ity nosymm scf(maxcyc=100)\\ONIOM(QM:MM) OPT FREQ with SICTWO V1.0\\0,
 1\C,-1.9188640214,0.2481178555,0.4837817722\C,-0.5624985803,0.14609861
 4,0.4837488261\C,-0.0651580159,1.4899264943,0.4836378356\C,-1.15839504
 8,2.3118260976,0.4835593991\H,-2.7234030091,-0.4713636964,0.4838689831
 \H,0.0171057632,-0.7663024957,0.4838157943\H,0.9730883211,1.7931254984
 ,0.4836015357\O,-2.2985789442,1.5543959127,0.4836496862\C,-1.365319456
 8,3.7848593644,0.4834080759\H,-1.9565857455,4.044800522,-0.4017723033\
 H,-1.9567685954,4.044958513,1.3684202238\C,-0.0727545489,4.5819776141,
 0.4834734318\H,0.5318644762,4.3603369379,-0.4026458656\H,-0.2905824546
 ,5.6548393461,0.4833766215\H,0.5316968397,4.3604610819,1.3697381338\\V
 ersion=EM64L-G09RevD.01\HF=0.0140288\RMSD=2.849e-09\RMSF=5.608e-05\Dip
 ole=0.2042612,0.0806545,0.0000047\PG=C01 [X(C6H8O1)]\\@


 THIS CURIOUS WORLD WHICH WE INHABIT IS MORE WONDERFUL THAN IT IS CONVENIENT;
 MORE BEAUTIFUL THAN IT IS USEFUL;
 IT IS MORE TO BE ADMIRED THAN IT IS TO BE USED.

                                                                 -- THOREAU
 Job cpu time:       0 days  0 hours  5 minutes 34.9 seconds.
 File lengths (MBytes):  RWF=      6 Int=      0 D2E=      0 Chk=      3 Scr=      1
 Normal termination of Gaussian 09 at Tue Feb  7 16:44:09 2017.
