 Entering Gaussian System, Link 0=g09
 Initial command:
 /mnt/data/applications/G09/g09/l1.exe "/scratch/Gau-20724.inp" -scrdir="/scratch/"
 Entering Link 1 = /mnt/data/applications/G09/g09/l1.exe PID=     20725.
  
 Copyright (c) 1988,1990,1992,1993,1995,1998,2003,2009,2013,
            Gaussian, Inc.  All Rights Reserved.
  
 This is part of the Gaussian(R) 09 program.  It is based on
 the Gaussian(R) 03 system (copyright 2003, Gaussian, Inc.),
 the Gaussian(R) 98 system (copyright 1998, Gaussian, Inc.),
 the Gaussian(R) 94 system (copyright 1995, Gaussian, Inc.),
 the Gaussian 92(TM) system (copyright 1992, Gaussian, Inc.),
 the Gaussian 90(TM) system (copyright 1990, Gaussian, Inc.),
 the Gaussian 88(TM) system (copyright 1988, Gaussian, Inc.),
 the Gaussian 86(TM) system (copyright 1986, Carnegie Mellon
 University), and the Gaussian 82(TM) system (copyright 1983,
 Carnegie Mellon University). Gaussian is a federally registered
 trademark of Gaussian, Inc.
  
 This software contains proprietary and confidential information,
 including trade secrets, belonging to Gaussian, Inc.
  
 This software is provided under written license and may be
 used, copied, transmitted, or stored only in accord with that
 written license.
  
 The following legend is applicable only to US Government
 contracts under FAR:
  
                    RESTRICTED RIGHTS LEGEND
  
 Use, reproduction and disclosure by the US Government is
 subject to restrictions as set forth in subparagraphs (a)
 and (c) of the Commercial Computer Software - Restricted
 Rights clause in FAR 52.227-19.
  
 Gaussian, Inc.
 340 Quinnipiac St., Bldg. 40, Wallingford CT 06492
  
  
 ---------------------------------------------------------------
 Warning -- This program may not be used in any manner that
 competes with the business of Gaussian, Inc. or will provide
 assistance to any competitor of Gaussian, Inc.  The licensee
 of this program is prohibited from giving any competitor of
 Gaussian, Inc. access to this program.  By using this program,
 the user acknowledges that Gaussian, Inc. is engaged in the
 business of creating and licensing software in the field of
 computational chemistry and represents and warrants to the
 licensee that it is not a competitor of Gaussian, Inc. and that
 it will not use this program in any manner prohibited above.
 ---------------------------------------------------------------
  

 Cite this work as:
 Gaussian 09, Revision D.01,
 M. J. Frisch, G. W. Trucks, H. B. Schlegel, G. E. Scuseria, 
 M. A. Robb, J. R. Cheeseman, G. Scalmani, V. Barone, B. Mennucci, 
 G. A. Petersson, H. Nakatsuji, M. Caricato, X. Li, H. P. Hratchian, 
 A. F. Izmaylov, J. Bloino, G. Zheng, J. L. Sonnenberg, M. Hada, 
 M. Ehara, K. Toyota, R. Fukuda, J. Hasegawa, M. Ishida, T. Nakajima, 
 Y. Honda, O. Kitao, H. Nakai, T. Vreven, J. A. Montgomery, Jr., 
 J. E. Peralta, F. Ogliaro, M. Bearpark, J. J. Heyd, E. Brothers, 
 K. N. Kudin, V. N. Staroverov, T. Keith, R. Kobayashi, J. Normand, 
 K. Raghavachari, A. Rendell, J. C. Burant, S. S. Iyengar, J. Tomasi, 
 M. Cossi, N. Rega, J. M. Millam, M. Klene, J. E. Knox, J. B. Cross, 
 V. Bakken, C. Adamo, J. Jaramillo, R. Gomperts, R. E. Stratmann, 
 O. Yazyev, A. J. Austin, R. Cammi, C. Pomelli, J. W. Ochterski, 
 R. L. Martin, K. Morokuma, V. G. Zakrzewski, G. A. Voth, 
 P. Salvador, J. J. Dannenberg, S. Dapprich, A. D. Daniels, 
 O. Farkas, J. B. Foresman, J. V. Ortiz, J. Cioslowski, 
 and D. J. Fox, Gaussian, Inc., Wallingford CT, 2013.
 
 ******************************************
 Gaussian 09:  EM64L-G09RevD.01 24-Apr-2013
                 7-Feb-2017 
 ******************************************
 %nprocshared=8
 Will use up to    8 processors via shared memory.
 %mem=8000MB
 %chk=A_2_UFF
 ----------------------------------------------------------------------
 #p opt=nomicro oniom(B3LYP/6-31G*:UFF) geom=connectivity nosymm scf(ma
 xcyc=100)
 ----------------------------------------------------------------------
 1/14=-1,18=20,19=15,38=1,52=2,56=1,57=2,61=3,64=2/1,3;
 2/9=110,12=2,15=1,17=6,18=5,40=1/2;
 1/14=-1,18=20,19=15,38=1,52=2,53=3172,61=3,64=2/20;
 3/5=30,11=9,16=1,25=1,30=1,41=10200000,43=2,71=1/1;
 4/20=10,22=1,23=100,24=3/2;
 7/7=1,30=1,33=-1,44=-1/16;
 1/14=-1,18=20,19=15,26=1,52=2,53=2032,61=3/20;
 3/5=1,6=6,7=1,11=2,16=1,25=1,30=1,71=1,74=-5/1,2,3;
 4//1;
 5/5=2,7=100,38=5/2;
 6/7=2,8=2,9=2,10=2,28=1/1;
 7/7=1,30=1,33=-1/1,2,3,16;
 1/14=-1,18=20,19=15,52=2,53=1022,61=3,64=2/20;
 3/5=30,11=9,16=1,25=1,30=1,41=10200000,43=2,71=1/1;
 4/20=10,22=1,23=100,24=3/2;
 7/7=1,30=1,33=-1,44=-1/16;
 1/14=-1,18=20,19=15,52=2,53=3015,61=3,64=2/20;
 7/9=1,44=-1/16;
 1/14=-1,18=20,19=15,52=2,61=3,64=2/3(2);
 2/9=110,15=1/2;
 99//99;
 2/9=110,15=1/2;
 1/14=-1,18=20,19=15,52=2,53=3173,61=3,64=2/20;
 3/5=30,11=9,16=1,25=1,30=1,41=10200000,43=2,71=1/1;
 4/16=2,20=10,22=1,23=100,24=3/2;
 7/7=1,30=1,33=-1,44=-1/16;
 1/14=-1,18=20,19=15,26=1,52=2,53=2033,61=3/20;
 3/5=1,6=6,7=1,11=2,16=1,25=1,30=1,71=1,74=-5/1,2,3;
 4/5=5,16=3,69=1/1;
 5/5=2,7=100,38=5/2;
 7/7=1,30=1,33=-1/1,2,3,16;
 1/14=-1,18=20,19=15,52=2,53=1023,61=3,64=2/20;
 3/5=30,11=9,16=1,25=1,30=1,41=10200000,43=2,71=1/1;
 4/16=2,20=10,22=1,23=100,24=3/2;
 7/7=1,30=1,33=-1,44=-1/16;
 1/14=-1,18=20,19=15,52=2,53=3015,61=3,64=2/20;
 7/9=1,44=-1/16;
 1/14=-1,18=20,19=15,52=2,61=3,64=2/3(-16);
 2/9=110,15=1/2;
 99//99;
 Leave Link    1 at Tue Feb  7 16:33:17 2017, MaxMem=  1048576000 cpu:         0.7
 (Enter /mnt/data/applications/G09/g09/l101.exe)
 --------------------------------------
 ONIOM(QM:MM) OPT FREQ with SICTWO V1.0
 --------------------------------------
 Symbolic Z-matrix:
 Charge =  0 Multiplicity = 1 for low   level calculation on real  system.
 Charge =  0 Multiplicity = 1 for high  level calculation on model system.
 Charge =  0 Multiplicity = 1 for low   level calculation on model system.
 C-C_3                0     0.44534  -2.95547   0.       H 
 H-H_                 0     0.802    -3.96428   0.       H 
 H-H_                 0     0.80202  -2.45107  -0.87365  H 
 H-H_                 0    -0.62466  -2.95545   0.       H 
 C-C_3                0     0.95869  -2.22951   1.2574   L    H-H_     1     0.        0. 
 H-H_                 0     0.60363  -1.22014   1.25643  L 
 H-H_                 0     0.60042  -2.73278   2.13105  L 
 H-H_                 0     2.02868  -2.23122   1.25838  L 
 
 NAtoms=      8 NQM=        5 NQMF=       0 NMMI=      3 NMMIF=      0
                NMic=       0 NMicF=      0.
                    Isotopes and Nuclear Properties:
 (Nuclear quadrupole moments (NQMom) in fm**2, nuclear magnetic moments (NMagM)
  in nuclear magnetons)

  Atom         1           2           3           4           5           6           7           8
 IAtWgt=          12           1           1           1          12           1           1           1
 AtmWgt=  12.0000000   1.0078250   1.0078250   1.0078250  12.0000000   1.0078250   1.0078250   1.0078250
 NucSpn=           0           1           1           1           0           1           1           1
 AtZEff=   0.0000000   0.0000000   0.0000000   0.0000000   0.0000000   0.0000000   0.0000000   0.0000000
 NQMom=    0.0000000   0.0000000   0.0000000   0.0000000   0.0000000   0.0000000   0.0000000   0.0000000
 NMagM=    0.0000000   2.7928460   2.7928460   2.7928460   0.0000000   2.7928460   2.7928460   2.7928460
 AtZNuc=   6.0000000   1.0000000   1.0000000   1.0000000   6.0000000   1.0000000   1.0000000   1.0000000
 Generating MM parameters.
 Include all MM classes

 MM sanity checks:
 All charges sum to:                0.00000000
 Charges of atoms sum to:           0.00000000
 Layer 1 (S) has      5 atoms and charge   0.00000000 sum=   0.00000000
 Layer 2 (R) adds     3 atoms and charge   0.00000000 sum=   0.00000000
 MMInit generated parameter data with length LenPar=        1237.
 Leave Link  101 at Tue Feb  7 16:33:18 2017, MaxMem=  1048576000 cpu:         2.9
 (Enter /mnt/data/applications/G09/g09/l103.exe)

 GradGradGradGradGradGradGradGradGradGradGradGradGradGradGradGradGradGrad
 Berny optimization.
 Initialization pass.
                           ----------------------------
                           !    Initial Parameters    !
                           ! (Angstroms and Degrees)  !
 --------------------------                            --------------------------
 ! Name  Definition              Value          Derivative Info.                !
 --------------------------------------------------------------------------------
 ! R1    R(1,2)                  1.07           estimate D2E/DX2                !
 ! R2    R(1,3)                  1.07           estimate D2E/DX2                !
 ! R3    R(1,4)                  1.07           estimate D2E/DX2                !
 ! R4    R(1,5)                  1.54           estimate D2E/DX2                !
 ! R5    R(5,6)                  1.07           estimate D2E/DX2                !
 ! R6    R(5,7)                  1.07           estimate D2E/DX2                !
 ! R7    R(5,8)                  1.07           estimate D2E/DX2                !
 ! A1    A(2,1,3)              109.4712         estimate D2E/DX2                !
 ! A2    A(2,1,4)              109.4712         estimate D2E/DX2                !
 ! A3    A(2,1,5)              109.4712         estimate D2E/DX2                !
 ! A4    A(3,1,4)              109.4712         estimate D2E/DX2                !
 ! A5    A(3,1,5)              109.4713         estimate D2E/DX2                !
 ! A6    A(4,1,5)              109.4712         estimate D2E/DX2                !
 ! A7    A(1,5,6)              109.4712         estimate D2E/DX2                !
 ! A8    A(1,5,7)              109.4712         estimate D2E/DX2                !
 ! A9    A(1,5,8)              109.4712         estimate D2E/DX2                !
 ! A10   A(6,5,7)              109.4713         estimate D2E/DX2                !
 ! A11   A(6,5,8)              109.4712         estimate D2E/DX2                !
 ! A12   A(7,5,8)              109.4712         estimate D2E/DX2                !
 ! D1    D(2,1,5,6)            179.8889         estimate D2E/DX2                !
 ! D2    D(2,1,5,7)            -60.1111         estimate D2E/DX2                !
 ! D3    D(2,1,5,8)             59.8889         estimate D2E/DX2                !
 ! D4    D(3,1,5,6)             59.8889         estimate D2E/DX2                !
 ! D5    D(3,1,5,7)            179.8889         estimate D2E/DX2                !
 ! D6    D(3,1,5,8)            -60.1111         estimate D2E/DX2                !
 ! D7    D(4,1,5,6)            -60.1111         estimate D2E/DX2                !
 ! D8    D(4,1,5,7)             59.8889         estimate D2E/DX2                !
 ! D9    D(4,1,5,8)            179.8889         estimate D2E/DX2                !
 --------------------------------------------------------------------------------
 Trust Radius=3.00D-01 FncErr=1.00D-07 GrdErr=1.00D-07
 Number of steps in this run=     38 maximum allowed number of steps=    100.
 GradGradGradGradGradGradGradGradGradGradGradGradGradGradGradGradGradGrad

 Leave Link  103 at Tue Feb  7 16:33:18 2017, MaxMem=  1048576000 cpu:         0.1
 (Enter /mnt/data/applications/G09/g09/l202.exe)
                          Input orientation:                          
 ---------------------------------------------------------------------
 Center     Atomic      Atomic             Coordinates (Angstroms)
 Number     Number       Type             X           Y           Z
 ---------------------------------------------------------------------
      1          6    10061003        0.445344   -2.955466    0.000000
      2          1    10011000        0.801999   -3.964276    0.000000
      3          1    10011000        0.802017   -2.451067   -0.873652
      4          1    10011000       -0.624656   -2.955452    0.000000
      5          6    10061003        0.958686   -2.229509    1.257405
      6          1    10011000        0.603630   -1.220136    1.256427
      7          1    10011000        0.600417   -2.732778    2.131055
      8          1    10011000        2.028685   -2.231216    1.258384
 ---------------------------------------------------------------------
                    Distance matrix (angstroms):
                    1          2          3          4          5
     1  C    0.000000
     2  H    1.070000   0.000000
     3  H    1.070000   1.747302   0.000000
     4  H    1.070000   1.747303   1.747303   0.000000
     5  C    1.540000   2.148263   2.148263   2.148263   0.000000
     6  H    2.148263   3.024609   2.468154   2.469538   1.070000
     7  H    2.148263   2.469538   3.024610   2.468154   1.070000
     8  H    2.148263   2.468154   2.469539   3.024610   1.070000
                    6          7          8
     6  H    0.000000
     7  H    1.747303   0.000000
     8  H    1.747303   1.747303   0.000000
 Symmetry turned off by external request.
 Stoichiometry    C2H6
 Framework group  D3[C3(C.C),X(H6)]
 Deg. of freedom     4
 Full point group                 D3      NOp   6
 Rotational constants (GHZ):     82.1231795     20.2293851     20.2293848
 Mismatch for IA=    1 IOp=  4 Lay=1 IAnM=  0 IAtM=         0 ACM=    0.000000 Dist= 0.000000 0.000000
              JA=    5         Lay=2 IAnM=  1 IAtM=  10011000 ACM=    0.000000 Dist= 0.000000 0.000000
 Mismatch for IA=    2 IOp=  4 Lay=1 IAnM=  0 IAtM=         0 ACM=    0.000000 Dist= 0.000000 0.000000
              JA=    8         Lay=2 IAnM=  0 IAtM=         0 ACM=    0.000000 Dist= 0.000000 0.000000
 Mismatch for IA=    3 IOp=  4 Lay=1 IAnM=  0 IAtM=         0 ACM=    0.000000 Dist= 0.000000 0.000000
              JA=    7         Lay=2 IAnM=  0 IAtM=         0 ACM=    0.000000 Dist= 0.000000 0.000000
 Mismatch for IA=    4 IOp=  4 Lay=1 IAnM=  0 IAtM=         0 ACM=    0.000000 Dist= 0.000000 0.000000
              JA=    6         Lay=2 IAnM=  0 IAtM=         0 ACM=    0.000000 Dist= 0.000000 0.000000
 Mismatch for IA=    5 IOp=  4 Lay=2 IAnM=  1 IAtM=  10011000 ACM=    0.000000 Dist= 0.000000 0.000000
              JA=    1         Lay=1 IAnM=  0 IAtM=         0 ACM=    0.000000 Dist= 0.000000 0.000000
 Mismatch for IA=    6 IOp=  4 Lay=2 IAnM=  0 IAtM=         0 ACM=    0.000000 Dist= 0.000000 0.000000
              JA=    4         Lay=1 IAnM=  0 IAtM=         0 ACM=    0.000000 Dist= 0.000000 0.000000
 Mismatch for IA=    7 IOp=  4 Lay=2 IAnM=  0 IAtM=         0 ACM=    0.000000 Dist= 0.000000 0.000000
              JA=    3         Lay=1 IAnM=  0 IAtM=         0 ACM=    0.000000 Dist= 0.000000 0.000000
 Mismatch for IA=    8 IOp=  4 Lay=2 IAnM=  0 IAtM=         0 ACM=    0.000000 Dist= 0.000000 0.000000
              JA=    2         Lay=1 IAnM=  0 IAtM=         0 ACM=    0.000000 Dist= 0.000000 0.000000
 Symmetry turned off in CkOnSy:
 Model systems do not conform to real system point group.
 Leave Link  202 at Tue Feb  7 16:33:18 2017, MaxMem=  1048576000 cpu:         0.0
 (Enter /mnt/data/applications/G09/g09/l120.exe)
 ONIOM: Cut between C /H     5 and C     1 factor= 0.723886 0.723886
 ONIOM: saving gridpoint 17
 ONIOM: generating point  3 -- low level on real system.
 Leave Link  120 at Tue Feb  7 16:33:18 2017, MaxMem=  1048576000 cpu:         0.0
 (Enter /mnt/data/applications/G09/g09/l301.exe)
 Standard basis: Dummy (5D, 7F)
     8 basis functions,     8 primitive gaussians,     8 cartesian basis functions
     5 alpha electrons        5 beta electrons
       nuclear repulsion energy        13.8931653024 Hartrees.
 IExCor=    0 DFT=F Ex=HF Corr=None ExCW=0 ScaHFX=  1.000000
 ScaDFX=  1.000000  1.000000  1.000000  1.000000 ScalE2=  1.000000  1.000000
 IRadAn=      0 IRanWt=     -1 IRanGd=            0 ICorTp=0 IEmpDi=  4
 NAtoms=    8 NActive=    8 NUniq=    8 SFac= 1.00D+00 NAtFMM=   60 NAOKFM=F Big=F
 Integral buffers will be    131072 words long.
 Raffenetti 1 integral format.
 Two-electron integral symmetry is turned off.
 Leave Link  301 at Tue Feb  7 16:33:18 2017, MaxMem=  1048576000 cpu:         0.3
 (Enter /mnt/data/applications/G09/g09/l402.exe)
 UFF calculation of energy and first derivatives.
 Energy per function type:
 Direct Coulomb + vdW (small)                           0.000394462
 Direct Coulomb (large)                                 0.000000000
 Direct vdW (large)                                   552.831950797
 Non-direct Coulomb + vdW (small)                       0.000000000
 Non-direct Coulomb (large)                             0.000000000
 Non-direct vdW (large)                              -552.831950797
 Harmonic stretch III                                   0.005291166
 UFF 3-term bend                                        0.000000000
 UFF torsion w/ sp3 V                                   0.000000029
 Energy per function class:
        Coulomb               0.000000000
    Vanderwaals               0.000394462
     Stretching               0.005291166
        Bending               0.000000000
        Torsion               0.000000029
 Energy=    5.685656502E-03 NIter=   0.
 Dipole moment=       0.000000       0.000000       0.000000
 Leave Link  402 at Tue Feb  7 16:33:18 2017, MaxMem=  1048576000 cpu:         0.3
 (Enter /mnt/data/applications/G09/g09/l716.exe)
 Dipole        = 0.00000000D+00 0.00000000D+00 0.00000000D+00
 Cartesian Forces:  Max     0.030488140 RMS     0.015657985
 Leave Link  716 at Tue Feb  7 16:33:18 2017, MaxMem=  1048576000 cpu:         0.3
 (Enter /mnt/data/applications/G09/g09/l120.exe)
 ONIOM: saving gridpoint  3
 ONIOM: restoring gridpoint 17
 ONIOM: generating point  2 -- high level on model system.
 Leave Link  120 at Tue Feb  7 16:33:18 2017, MaxMem=  1048576000 cpu:         0.0
 (Enter /mnt/data/applications/G09/g09/l301.exe)
 Standard basis: 6-31G(d) (6D, 7F)
 Ernie: Thresh=  0.10000D-02 Tol=  0.10000D-05 Strict=F.
    23 basis functions,    44 primitive gaussians,    23 cartesian basis functions
     5 alpha electrons        5 beta electrons
       nuclear repulsion energy        13.5485935903 Hartrees.
 IExCor=  402 DFT=T Ex+Corr=B3LYP ExCW=0 ScaHFX=  0.200000
 ScaDFX=  0.800000  0.720000  1.000000  0.810000 ScalE2=  1.000000  1.000000
 IRadAn=      0 IRanWt=     -1 IRanGd=            0 ICorTp=0 IEmpDi=  4
 NAtoms=    8 NActive=    5 NUniq=    5 SFac= 1.00D+00 NAtFMM=   60 NAOKFM=F Big=F
 Integral buffers will be    131072 words long.
 Raffenetti 2 integral format.
 Two-electron integral symmetry is turned off.
 Leave Link  301 at Tue Feb  7 16:33:18 2017, MaxMem=  1048576000 cpu:         0.4
 (Enter /mnt/data/applications/G09/g09/l302.exe)
 NPDir=0 NMtPBC=     1 NCelOv=     1 NCel=       1 NClECP=     1 NCelD=      1
         NCelK=      1 NCelE2=     1 NClLst=     1 CellRange=     0.0.
 One-electron integrals computed using PRISM.
 NBasis=    23 RedAO= T EigKep=  1.72D-02  NBF=    23
 NBsUse=    23 1.00D-06 EigRej= -1.00D+00 NBFU=    23
 Precomputing XC quadrature grid using
 IXCGrd= 4 IRadAn=           0 IRanWt=          -1 IRanGd=           0 AccXCQ= 0.00D+00.
 Generated NRdTot=       0 NPtTot=           0 NUsed=           0 NTot=          32
 NSgBfM=    23    23    23    23    23 MxSgAt=     5 MxSgA2=     5.
 Leave Link  302 at Tue Feb  7 16:33:19 2017, MaxMem=  1048576000 cpu:         1.7
 (Enter /mnt/data/applications/G09/g09/l303.exe)
 DipDrv:  MaxL=1.
 Leave Link  303 at Tue Feb  7 16:33:19 2017, MaxMem=  1048576000 cpu:         0.3
 (Enter /mnt/data/applications/G09/g09/l401.exe)
 ExpMin= 1.61D-01 ExpMax= 3.05D+03 ExpMxC= 4.57D+02 IAcc=1 IRadAn=         1 AccDes= 0.00D+00
 Harris functional with IExCor=  402 and IRadAn=       1 diagonalized for initial guess.
 HarFok:  IExCor=  402 AccDes= 0.00D+00 IRadAn=         1 IDoV= 1 UseB2=F ITyADJ=14
 ICtDFT=  3500011 ScaDFX=  1.000000  1.000000  1.000000  1.000000
 FoFCou: FMM=F IPFlag=           0 FMFlag=      100000 FMFlg1=           0
         NFxFlg=           0 DoJE=T BraDBF=F KetDBF=T FulRan=T
         wScrn=  0.000000 ICntrl=     500 IOpCl=  0 I1Cent=   200000004 NGrid=           0
         NMat0=    1 NMatS0=      1 NMatT0=    0 NMatD0=    1 NMtDS0=    0 NMtDT0=    0
 Symmetry not used in FoFCou.
 Harris En= -40.5645515994376    
 JPrj=0 DoOrth=F DoCkMO=F.
 Leave Link  401 at Tue Feb  7 16:33:19 2017, MaxMem=  1048576000 cpu:         1.4
 (Enter /mnt/data/applications/G09/g09/l502.exe)
 Closed shell SCF:
 Using DIIS extrapolation, IDIIS=  1040.
 Two-electron integral symmetry not used.
 Keep R1 ints in memory in canonical form, NReq=911833.
 IVT=       13951 IEndB=       13951 NGot=  1048576000 MDV=  1048523824
 LenX=  1048523824 LenY=  1048522854
 Requested convergence on RMS density matrix=1.00D-08 within 100 cycles.
 Requested convergence on MAX density matrix=1.00D-06.
 Requested convergence on             energy=1.00D-06.
 No special actions if energy rises.
 FoFCou: FMM=F IPFlag=           0 FMFlag=           0 FMFlg1=           0
         NFxFlg=           0 DoJE=F BraDBF=F KetDBF=F FulRan=T
         wScrn=  0.000000 ICntrl=     600 IOpCl=  0 I1Cent=           0 NGrid=           0
         NMat0=    1 NMatS0=    276 NMatT0=    0 NMatD0=    1 NMtDS0=    0 NMtDT0=    0
 Symmetry not used in FoFCou.
 Integral accuracy reduced to 1.0D-05 until final iterations.

 Cycle   1  Pass 0  IDiag  1:
 E= -40.4235783124349    
 DIIS: error= 6.90D-02 at cycle   1 NSaved=   1.
 NSaved= 1 IEnMin= 1 EnMin= -40.4235783124349     IErMin= 1 ErrMin= 6.90D-02
 ErrMax= 6.90D-02  0.00D+00 EMaxC= 1.00D-01 BMatC= 8.65D-02 BMatP= 8.65D-02
 IDIUse=3 WtCom= 3.10D-01 WtEn= 6.90D-01
 Coeff-Com:  0.100D+01
 Coeff-En:   0.100D+01
 Coeff:      0.100D+01
 Gap=     0.431 Goal=   None    Shift=    0.000
 GapD=    0.431 DampG=2.000 DampE=0.500 DampFc=1.0000 IDamp=-1.
 RMSDP=2.27D-02 MaxDP=1.59D-01              OVMax= 1.97D-01

 Cycle   2  Pass 0  IDiag  1:
 E= -40.4040709927710     Delta-E=        0.019507319664 Rises=F Damp=F
 DIIS: error= 7.34D-02 at cycle   2 NSaved=   2.
 NSaved= 2 IEnMin= 1 EnMin= -40.4235783124349     IErMin= 1 ErrMin= 6.90D-02
 ErrMax= 7.34D-02  0.00D+00 EMaxC= 1.00D-01 BMatC= 1.04D-01 BMatP= 8.65D-02
 IDIUse=2 WtCom= 0.00D+00 WtEn= 1.00D+00
 Coeff-En:   0.545D+00 0.455D+00
 Coeff:      0.545D+00 0.455D+00
 Gap=     0.497 Goal=   None    Shift=    0.000
 RMSDP=1.15D-02 MaxDP=7.19D-02 DE= 1.95D-02 OVMax= 9.85D-02

 Cycle   3  Pass 0  IDiag  1:
 E= -40.5168269274465     Delta-E=       -0.112755934675 Rises=F Damp=F
 DIIS: error= 3.26D-03 at cycle   3 NSaved=   3.
 NSaved= 3 IEnMin= 3 EnMin= -40.5168269274465     IErMin= 3 ErrMin= 3.26D-03
 ErrMax= 3.26D-03  0.00D+00 EMaxC= 1.00D-01 BMatC= 2.18D-04 BMatP= 8.65D-02
 IDIUse=3 WtCom= 9.67D-01 WtEn= 3.26D-02
 Coeff-Com:  0.133D-01-0.346D-01 0.102D+01
 Coeff-En:   0.000D+00 0.000D+00 0.100D+01
 Coeff:      0.129D-01-0.334D-01 0.102D+01
 Gap=     0.506 Goal=   None    Shift=    0.000
 RMSDP=4.54D-04 MaxDP=3.64D-03 DE=-1.13D-01 OVMax= 4.10D-03

 Cycle   4  Pass 0  IDiag  1:
 E= -40.5170391785414     Delta-E=       -0.000212251095 Rises=F Damp=F
 DIIS: error= 5.20D-05 at cycle   4 NSaved=   4.
 NSaved= 4 IEnMin= 4 EnMin= -40.5170391785414     IErMin= 4 ErrMin= 5.20D-05
 ErrMax= 5.20D-05  0.00D+00 EMaxC= 1.00D-01 BMatC= 6.72D-08 BMatP= 2.18D-04
 IDIUse=1 WtCom= 1.00D+00 WtEn= 0.00D+00
 Coeff-Com:  0.148D-02-0.151D-02 0.498D-01 0.950D+00
 Coeff:      0.148D-02-0.151D-02 0.498D-01 0.950D+00
 Gap=     0.507 Goal=   None    Shift=    0.000
 RMSDP=9.42D-06 MaxDP=4.02D-05 DE=-2.12D-04 OVMax= 9.94D-05

 Initial convergence to 1.0D-05 achieved.  Increase integral accuracy.
 Cycle   5  Pass 1  IDiag  1:
 E= -40.5170480118551     Delta-E=       -0.000008833314 Rises=F Damp=F
 DIIS: error= 8.47D-06 at cycle   1 NSaved=   1.
 NSaved= 1 IEnMin= 1 EnMin= -40.5170480118551     IErMin= 1 ErrMin= 8.47D-06
 ErrMax= 8.47D-06  0.00D+00 EMaxC= 1.00D-01 BMatC= 3.03D-09 BMatP= 3.03D-09
 IDIUse=1 WtCom= 1.00D+00 WtEn= 0.00D+00
 Coeff-Com:  0.100D+01
 Coeff:      0.100D+01
 Gap=     0.507 Goal=   None    Shift=    0.000
 RMSDP=9.42D-06 MaxDP=4.02D-05 DE=-8.83D-06 OVMax= 3.97D-05

 Cycle   6  Pass 1  IDiag  1:
 E= -40.5170480128290     Delta-E=       -0.000000000974 Rises=F Damp=F
 DIIS: error= 9.58D-06 at cycle   2 NSaved=   2.
 NSaved= 2 IEnMin= 2 EnMin= -40.5170480128290     IErMin= 1 ErrMin= 8.47D-06
 ErrMax= 9.58D-06  0.00D+00 EMaxC= 1.00D-01 BMatC= 2.06D-09 BMatP= 3.03D-09
 IDIUse=1 WtCom= 1.00D+00 WtEn= 0.00D+00
 Coeff-Com:  0.449D+00 0.551D+00
 Coeff:      0.449D+00 0.551D+00
 Gap=     0.507 Goal=   None    Shift=    0.000
 RMSDP=1.76D-06 MaxDP=1.36D-05 DE=-9.74D-10 OVMax= 1.91D-05

 Cycle   7  Pass 1  IDiag  1:
 E= -40.5170480148511     Delta-E=       -0.000000002022 Rises=F Damp=F
 DIIS: error= 1.78D-06 at cycle   3 NSaved=   3.
 NSaved= 3 IEnMin= 3 EnMin= -40.5170480148511     IErMin= 3 ErrMin= 1.78D-06
 ErrMax= 1.78D-06  0.00D+00 EMaxC= 1.00D-01 BMatC= 7.30D-11 BMatP= 2.06D-09
 IDIUse=1 WtCom= 1.00D+00 WtEn= 0.00D+00
 Coeff-Com:  0.141D+00 0.238D+00 0.622D+00
 Coeff:      0.141D+00 0.238D+00 0.622D+00
 Gap=     0.507 Goal=   None    Shift=    0.000
 RMSDP=3.04D-07 MaxDP=2.09D-06 DE=-2.02D-09 OVMax= 2.80D-06

 Cycle   8  Pass 1  IDiag  1:
 E= -40.5170480149248     Delta-E=       -0.000000000074 Rises=F Damp=F
 DIIS: error= 5.13D-08 at cycle   4 NSaved=   4.
 NSaved= 4 IEnMin= 4 EnMin= -40.5170480149248     IErMin= 4 ErrMin= 5.13D-08
 ErrMax= 5.13D-08  0.00D+00 EMaxC= 1.00D-01 BMatC= 9.20D-14 BMatP= 7.30D-11
 IDIUse=1 WtCom= 1.00D+00 WtEn= 0.00D+00
 Coeff-Com: -0.721D-02-0.354D-02 0.924D-02 0.100D+01
 Coeff:     -0.721D-02-0.354D-02 0.924D-02 0.100D+01
 Gap=     0.507 Goal=   None    Shift=    0.000
 RMSDP=1.79D-08 MaxDP=8.56D-08 DE=-7.37D-11 OVMax= 1.56D-07

 Cycle   9  Pass 1  IDiag  1:
 E= -40.5170480149249     Delta-E=        0.000000000000 Rises=F Damp=F
 DIIS: error= 4.91D-09 at cycle   5 NSaved=   5.
 NSaved= 5 IEnMin= 5 EnMin= -40.5170480149249     IErMin= 5 ErrMin= 4.91D-09
 ErrMax= 4.91D-09  0.00D+00 EMaxC= 1.00D-01 BMatC= 5.42D-16 BMatP= 9.20D-14
 IDIUse=1 WtCom= 1.00D+00 WtEn= 0.00D+00
 Coeff-Com: -0.143D-02-0.188D-02-0.279D-02 0.902D-01 0.916D+00
 Coeff:     -0.143D-02-0.188D-02-0.279D-02 0.902D-01 0.916D+00
 Gap=     0.507 Goal=   None    Shift=    0.000
 RMSDP=1.50D-09 MaxDP=1.06D-08 DE=-9.95D-14 OVMax= 1.80D-08

 SCF Done:  E(RB3LYP) =  -40.5170480149     A.U. after    9 cycles
            NFock=  9  Conv=0.15D-08     -V/T= 2.0095
 KE= 4.013675281510D+01 PE=-1.201797828572D+02 EE= 2.597738843683D+01
 Leave Link  502 at Tue Feb  7 16:33:20 2017, MaxMem=  1048576000 cpu:         3.0
 (Enter /mnt/data/applications/G09/g09/l601.exe)
 Copying SCF densities to generalized density rwf, IOpCl= 0 IROHF=0.

 **********************************************************************

            Population analysis using the SCF density.

 **********************************************************************

 Alpha  occ. eigenvalues --  -10.16186  -0.69426  -0.39355  -0.39355  -0.38625
 Alpha virt. eigenvalues --    0.12033   0.17366   0.18375   0.18375   0.52563
 Alpha virt. eigenvalues --    0.52563   0.53779   0.88722   0.91567   0.91567
 Alpha virt. eigenvalues --    0.97050   1.10358   1.65394   1.65394   2.22949
 Alpha virt. eigenvalues --    2.27576   2.27576   4.18825
          Condensed to atoms (all electrons):
               1          2          3          4          5
     1  C    5.088778   0.387215   0.387214   0.387214   0.382502
     2  H    0.387215   0.533735  -0.027944  -0.027943  -0.026185
     3  H    0.387214  -0.027944   0.533737  -0.027944  -0.026186
     4  H    0.387214  -0.027943  -0.027944   0.533738  -0.026186
     5  H    0.382502  -0.026185  -0.026186  -0.026186   0.546495
 Mulliken charges:
               1
     1  C   -0.632923
     2  H    0.161122
     3  H    0.161121
     4  H    0.161121
     5  H    0.149559
     6  H    0.000000
     7  H    0.000000
     8  H    0.000000
 Sum of Mulliken charges =   0.00000
 Mulliken charges with hydrogens summed into heavy atoms:
               1
     1  C    0.000000
 Electronic spatial extent (au):  <R**2>=            353.5838
 Charge=              0.0000 electrons
 Dipole moment (field-independent basis, Debye):
    X=             -0.0106    Y=             -0.0150    Z=             -0.0260  Tot=              0.0319
 Quadrupole moment (field-independent basis, Debye-Ang):
   XX=             -8.2329   YY=             -8.1320   ZZ=             -8.2108
   XY=              0.0283   XZ=             -0.0054   YZ=              0.0857
 Traceless Quadrupole moment (field-independent basis, Debye-Ang):
   XX=             -0.0410   YY=              0.0599   ZZ=             -0.0189
   XY=              0.0283   XZ=             -0.0054   YZ=              0.0857
 Octapole moment (field-independent basis, Debye-Ang**2):
  XXX=            -11.8012  YYY=             71.8652  ZZZ=             -0.1732  XYY=             -3.4011
  XXY=             24.2928  XXZ=             -0.0679  XZZ=             -3.3051  YZZ=             24.7639
  YYZ=             -0.3368  XYZ=              0.0347
 Hexadecapole moment (field-independent basis, Debye-Ang**3):
 XXXX=            -25.7371 YYYY=           -436.6275 ZZZZ=            -15.0355 XXXY=             34.7704
 XXXZ=             -0.1865 YYYX=             29.0674 YYYZ=              1.2863 ZZZX=             -0.1390
 ZZZY=              0.4244 XXYY=            -78.1307 XXZZ=             -6.4776 YYZZ=            -79.6138
 XXYZ=              0.1766 YYXZ=             -0.2044 ZZXY=             10.2820
 N-N= 1.354859359030D+01 E-N=-1.201797827930D+02  KE= 4.013675281510D+01
 No NMR shielding tensors so no spin-rotation constants.
 Leave Link  601 at Tue Feb  7 16:33:20 2017, MaxMem=  1048576000 cpu:         1.6
 (Enter /mnt/data/applications/G09/g09/l701.exe)
 Compute integral first derivatives.
 ... and contract with generalized density number  0.
 Leave Link  701 at Tue Feb  7 16:33:20 2017, MaxMem=  1048576000 cpu:         1.6
 (Enter /mnt/data/applications/G09/g09/l702.exe)
 L702 exits ... SP integral derivatives will be done elsewhere.
 Leave Link  702 at Tue Feb  7 16:33:20 2017, MaxMem=  1048576000 cpu:         0.3
 (Enter /mnt/data/applications/G09/g09/l703.exe)
 Compute integral first derivatives, UseDBF=F ICtDFT=           0.
 Integral derivatives from FoFJK, PRISM(SPDF).
 Calling FoFJK, ICntrl=      2127 FMM=F ISym2X=0 I1Cent= 0 IOpClX= 0 NMat=1 NMatS=1 NMatT=0.
 FoFJK:  IHMeth= 1 ICntrl=    2127 DoSepK=F KAlg= 0 I1Cent=   0 FoldK=F
 IRaf=         0 NMat=   1 IRICut=       1 DoRegI=T DoRafI=F ISym2E= 0.
 FoFCou: FMM=F IPFlag=           0 FMFlag=      100000 FMFlg1=         800
         NFxFlg=           0 DoJE=F BraDBF=F KetDBF=F FulRan=T
         wScrn=  0.000000 ICntrl=    2127 IOpCl=  0 I1Cent=           0 NGrid=           0
         NMat0=    1 NMatS0=      1 NMatT0=    0 NMatD0=    1 NMtDS0=    0 NMtDT0=    0
 Symmetry not used in FoFCou.
 Leave Link  703 at Tue Feb  7 16:33:21 2017, MaxMem=  1048576000 cpu:         2.2
 (Enter /mnt/data/applications/G09/g09/l716.exe)
 Dipole        =-4.18130221D-03-5.91660220D-03-1.02426456D-02
 Cartesian Forces:  Max     0.022392271 RMS     0.008515955
 Leave Link  716 at Tue Feb  7 16:33:21 2017, MaxMem=  1048576000 cpu:         0.3
 (Enter /mnt/data/applications/G09/g09/l120.exe)
 SvSCFP is copying densities from files   528 and   530 to   603.
 ONIOM: saving gridpoint  2
 ONIOM: restoring gridpoint 17
 ONIOM: generating point  1 -- low level on model system.
 Generating MM parameters for model system.
 Include all MM classes

 MM sanity checks:
 All charges sum to:                0.00000000
 Charges of atoms sum to:           0.00000000
 MMInit generated parameter data with length LenPar=         805.
 Leave Link  120 at Tue Feb  7 16:33:21 2017, MaxMem=  1048576000 cpu:         0.4
 (Enter /mnt/data/applications/G09/g09/l301.exe)
 Standard basis: Dummy (5D, 7F)
     5 basis functions,     5 primitive gaussians,     5 cartesian basis functions
     3 alpha electrons        3 beta electrons
       nuclear repulsion energy         5.7151347307 Hartrees.
 IExCor=    0 DFT=F Ex=HF Corr=None ExCW=0 ScaHFX=  1.000000
 ScaDFX=  1.000000  1.000000  1.000000  1.000000 ScalE2=  1.000000  1.000000
 IRadAn=      0 IRanWt=     -1 IRanGd=            0 ICorTp=0 IEmpDi=  4
 NAtoms=    8 NActive=    5 NUniq=    5 SFac= 1.00D+00 NAtFMM=   60 NAOKFM=F Big=F
 Integral buffers will be    131072 words long.
 Raffenetti 1 integral format.
 Two-electron integral symmetry is turned off.
 Leave Link  301 at Tue Feb  7 16:33:21 2017, MaxMem=  1048576000 cpu:         0.3
 (Enter /mnt/data/applications/G09/g09/l402.exe)
 UFF calculation of energy and first derivatives.
 Energy per function type:
 Direct Coulomb + vdW (small)                           0.000000000
 Direct Coulomb (large)                                 0.000000000
 Direct vdW (large)                                   326.720705359
 Non-direct Coulomb + vdW (small)                       0.000000000
 Non-direct Coulomb (large)                             0.000000000
 Non-direct vdW (large)                              -326.720705359
 Harmonic stretch III                                   0.002472458
 UFF 3-term bend                                        0.000000000
 Energy per function class:
        Coulomb               0.000000000
    Vanderwaals               0.000000000
     Stretching               0.002472458
        Bending               0.000000000
 Energy=    2.472457644E-03 NIter=   0.
 Dipole moment=       0.000000       0.000000       0.000000
 Leave Link  402 at Tue Feb  7 16:33:21 2017, MaxMem=  1048576000 cpu:         0.3
 (Enter /mnt/data/applications/G09/g09/l716.exe)
 Dipole        = 0.00000000D+00 0.00000000D+00 0.00000000D+00
 Cartesian Forces:  Max     0.022000862 RMS     0.009324008
 Leave Link  716 at Tue Feb  7 16:33:21 2017, MaxMem=  1048576000 cpu:         0.3
 (Enter /mnt/data/applications/G09/g09/l120.exe)
 ONIOM: saving gridpoint  1
 ONIOM: restoring gridpoint  3
 ONIOM: calculating energy.
 ONIOM: gridpoint  1 method:  low   system:  model energy:     0.002472457644
 ONIOM: gridpoint  2 method:  high  system:  model energy:   -40.517048014925
 ONIOM: gridpoint  3 method:  low   system:  real  energy:     0.005685656502
 ONIOM: extrapolated energy =     -40.513834816067
 ONIOM: calculating first derivatives.
 ONIOM: calculating electric field derivatives.
 ONIOM: Integrating ONIOM file  4 number   619
 ONIOM: Dipole        =-4.18130221D-03-5.91660220D-03-1.02426456D-02
 ONIOM: Dipole moment (Debye):
    X=    -0.0106    Y=    -0.0150    Z=    -0.0260  Tot=     0.0319
 ONIOM: Integrating ONIOM file  5 number   695
 Nuclear Quadrupole Tensors: 
                 1             2             3             4             5 
      1   0.104090D-01  0.113278D+00  0.113272D+00 -0.340137D+00  0.000000D+00
      2  -0.735897D-02  0.160491D+00 -0.803684D-01  0.197189D-03  0.000000D+00
      3   0.520312D-02 -0.283330D+00  0.564480D-01  0.170086D+00  0.000000D+00
      4  -0.127480D-01 -0.138274D-03  0.138927D+00  0.330435D-03  0.000000D+00
      5  -0.180278D-01  0.301576D-03  0.196467D+00 -0.298571D-04  0.000000D+00
      6  -0.156121D-01  0.170051D+00 -0.169720D+00  0.170051D+00  0.000000D+00
                 6             7             8 
      1   0.000000D+00  0.000000D+00  0.000000D+00
      2   0.000000D+00  0.000000D+00  0.000000D+00
      3   0.000000D+00  0.000000D+00  0.000000D+00
      4   0.000000D+00  0.000000D+00  0.000000D+00
      5   0.000000D+00  0.000000D+00  0.000000D+00
      6   0.000000D+00  0.000000D+00  0.000000D+00
 Saving ESP charges from gridpoint 2
 Leave Link  120 at Tue Feb  7 16:33:21 2017, MaxMem=  1048576000 cpu:         0.0
 (Enter /mnt/data/applications/G09/g09/l716.exe)
 Dipole        =-4.18130221D-03-5.91660220D-03-1.02426456D-02
 -------------------------------------------------------------------
 Center     Atomic                   Forces (Hartrees/Bohr)
 Number     Number              X              Y              Z
 -------------------------------------------------------------------
      1        6           0.012324561    0.017439302    0.030202308
      2        1           0.005552433   -0.016269614   -0.000319518
      3        1           0.005558769    0.007850343   -0.014249401
      4        1          -0.017186280   -0.000183989   -0.000326819
      5        6          -0.014866356   -0.021021860   -0.036413223
      6        1          -0.007007136    0.021585237    0.000951913
      7        1          -0.007062474   -0.009929263    0.019169243
      8        1           0.022686482    0.000529844    0.000985497
 -------------------------------------------------------------------
 Cartesian Forces:  Max     0.036413223 RMS     0.015534308
 Leave Link  716 at Tue Feb  7 16:33:21 2017, MaxMem=  1048576000 cpu:         0.3
 (Enter /mnt/data/applications/G09/g09/l103.exe)

 GradGradGradGradGradGradGradGradGradGradGradGradGradGradGradGradGradGrad
 Berny optimization.
 FormGI is forming the generalized inverse of G from B-inverse, IUseBI=4.
 Internal  Forces:  Max     0.022686833 RMS     0.009982624
 Search for a local minimum.
 Step number   1 out of a maximum of   38
 All quantities printed in internal units (Hartrees-Bohrs-Radians)
 RMS Force = .99826D-02 SwitMx=.10000D-02 MixMth= 1
 Mixed Optimization -- RFO/linear search
 Second derivative matrix not updated -- first step.
 ITU=  0
     Eigenvalues ---    0.00237   0.05720   0.05720   0.05720   0.05720
     Eigenvalues ---    0.16000   0.16000   0.16000   0.16000   0.16000
     Eigenvalues ---    0.16000   0.28519   0.37230   0.37230   0.37230
     Eigenvalues ---    0.37230   0.37230   0.37230
 RFO step:  Lambda=-7.64740159D-03 EMin= 2.36824124D-03
 Linear search not attempted -- first point.
 Iteration  1 RMS(Cart)=  0.02348021 RMS(Int)=  0.00008412
 Iteration  2 RMS(Cart)=  0.00011106 RMS(Int)=  0.00001110
 Iteration  3 RMS(Cart)=  0.00000001 RMS(Int)=  0.00001110
 ITry= 1 IFail=0 DXMaxC= 4.73D-02 DCOld= 1.00D+10 DXMaxT= 3.00D-01 DXLimC= 3.00D+00 Rises=F
 Variable       Old X    -DE/DX   Delta X   Delta X   Delta X     New X
                                 (Linear)    (Quad)   (Total)
    R1        2.02201   0.01719   0.00000   0.04524   0.04524   2.06725
    R2        2.02201   0.01719   0.00000   0.04524   0.04524   2.06725
    R3        2.02201   0.01719   0.00000   0.04523   0.04523   2.06724
    R4        2.91018  -0.01875   0.00000  -0.06402  -0.06402   2.84616
    R5        2.02201   0.02269   0.00000   0.05971   0.05971   2.08172
    R6        2.02201   0.02269   0.00000   0.05971   0.05971   2.08172
    R7        2.02201   0.02269   0.00000   0.05971   0.05971   2.08172
    A1        1.91063  -0.00038   0.00000  -0.00226  -0.00226   1.90837
    A2        1.91063  -0.00038   0.00000  -0.00225  -0.00225   1.90839
    A3        1.91063   0.00037   0.00000   0.00223   0.00223   1.91286
    A4        1.91063  -0.00038   0.00000  -0.00224  -0.00225   1.90839
    A5        1.91063   0.00038   0.00000   0.00225   0.00224   1.91288
    A6        1.91063   0.00038   0.00000   0.00227   0.00227   1.91290
    A7        1.91063   0.00113   0.00000   0.00676   0.00673   1.91736
    A8        1.91063   0.00113   0.00000   0.00674   0.00672   1.91735
    A9        1.91063   0.00113   0.00000   0.00674   0.00671   1.91735
   A10        1.91063  -0.00113   0.00000  -0.00674  -0.00677   1.90387
   A11        1.91063  -0.00113   0.00000  -0.00675  -0.00677   1.90386
   A12        1.91063  -0.00113   0.00000  -0.00675  -0.00677   1.90386
    D1        3.13965   0.00000   0.00000   0.00035   0.00035   3.14001
    D2       -1.04914   0.00000   0.00000   0.00036   0.00036  -1.04877
    D3        1.04526   0.00000   0.00000   0.00035   0.00035   1.04561
    D4        1.04526   0.00000   0.00000   0.00038   0.00038   1.04564
    D5        3.13965   0.00001   0.00000   0.00039   0.00039   3.14004
    D6       -1.04914   0.00000   0.00000   0.00038   0.00038  -1.04876
    D7       -1.04914   0.00000   0.00000   0.00036   0.00036  -1.04878
    D8        1.04526   0.00000   0.00000   0.00037   0.00037   1.04563
    D9        3.13965   0.00000   0.00000   0.00036   0.00036   3.14001
         Item               Value     Threshold  Converged?
 Maximum Force            0.022687     0.000450     NO 
 RMS     Force            0.009983     0.000300     NO 
 Maximum Displacement     0.047285     0.001800     NO 
 RMS     Displacement     0.023427     0.001200     NO 
 Predicted change in Energy=-3.904908D-03
 Lowest energy point so far.  Saving SCF results.
 GradGradGradGradGradGradGradGradGradGradGradGradGradGradGradGradGradGrad

 Leave Link  103 at Tue Feb  7 16:33:22 2017, MaxMem=  1048576000 cpu:         0.0
 (Enter /mnt/data/applications/G09/g09/l202.exe)
                          Input orientation:                          
 ---------------------------------------------------------------------
 Center     Atomic      Atomic             Coordinates (Angstroms)
 Number     Number       Type             X           Y           Z
 ---------------------------------------------------------------------
      1          6    10061003        0.450080   -2.948751    0.011623
      2          1    10011000        0.813418   -3.980588    0.009602
      3          1    10011000        0.813739   -2.434823   -0.882990
      4          1    10011000       -0.643854   -2.949817    0.009385
      5          6    10061003        0.952136   -2.238766    1.241368
      6          1    10011000        0.589945   -1.198428    1.246880
      7          1    10011000        0.586951   -2.752064    2.145071
      8          1    10011000        2.053707   -2.236664    1.248680
 ---------------------------------------------------------------------
                    Distance matrix (angstroms):
                    1          2          3          4          5
     1  C    0.000000
     2  H    1.093941   0.000000
     3  H    1.093939   1.784968   0.000000
     4  H    1.093937   1.784974   1.784973   0.000000
     5  C    1.506124   2.137858   2.137870   2.137887   0.000000
     6  H    2.146870   3.053066   2.472873   2.474069   1.101596
     7  H    2.146863   2.474023   3.053069   2.472882   1.101597
     8  H    2.146857   2.472833   2.474026   3.053076   1.101597
                    6          7          8
     6  H    0.000000
     7  H    1.794587   0.000000
     8  H    1.794585   1.794583   0.000000
 Symmetry turned off by external request.
 Stoichiometry    C2H6
 Framework group  C1[X(C2H6)]
 Deg. of freedom    18
 Full point group                 C1      NOp   1
 Rotational constants (GHZ):     78.2709356     20.6501005     20.6500932
 Leave Link  202 at Tue Feb  7 16:33:22 2017, MaxMem=  1048576000 cpu:         0.0
 (Enter /mnt/data/applications/G09/g09/l120.exe)
 ONIOM: saving gridpoint 17
 ONIOM: restoring gridpoint  3
 ONIOM: restoring gridpoint  3 on chk file.
 ONIOM: generating point  3 -- low level on real system.
 Leave Link  120 at Tue Feb  7 16:33:22 2017, MaxMem=  1048576000 cpu:         0.0
 (Enter /mnt/data/applications/G09/g09/l301.exe)
 Standard basis: Dummy (5D, 7F)
     8 basis functions,     8 primitive gaussians,     8 cartesian basis functions
     5 alpha electrons        5 beta electrons
       nuclear repulsion energy        13.7317817511 Hartrees.
 IExCor=    0 DFT=F Ex=HF Corr=None ExCW=0 ScaHFX=  1.000000
 ScaDFX=  1.000000  1.000000  1.000000  1.000000 ScalE2=  1.000000  1.000000
 IRadAn=      0 IRanWt=     -1 IRanGd=            0 ICorTp=0 IEmpDi=  4
 NAtoms=    8 NActive=    8 NUniq=    8 SFac= 1.00D+00 NAtFMM=   60 NAOKFM=F Big=F
 Integral buffers will be    131072 words long.
 Raffenetti 1 integral format.
 Two-electron integral symmetry is turned off.
 Leave Link  301 at Tue Feb  7 16:33:22 2017, MaxMem=  1048576000 cpu:         0.3
 (Enter /mnt/data/applications/G09/g09/l402.exe)
 UFF calculation of energy and first derivatives.
 Energy per function type:
 Direct Coulomb + vdW (small)                           0.000362371
 Direct Coulomb (large)                                 0.000000000
 Direct vdW (large)                                   412.453208021
 Non-direct Coulomb + vdW (small)                       0.000000000
 Non-direct Coulomb (large)                             0.000000000
 Non-direct vdW (large)                              -412.453208021
 Harmonic stretch III                                   0.000509368
 UFF 3-term bend                                        0.000023257
 UFF torsion w/ sp3 V                                   0.000000019
 Energy per function class:
        Coulomb               0.000000000
    Vanderwaals               0.000362371
     Stretching               0.000509368
        Bending               0.000023257
        Torsion               0.000000019
 Energy=    8.950157334E-04 NIter=   0.
 Dipole moment=       0.000000       0.000000       0.000000
 Leave Link  402 at Tue Feb  7 16:33:22 2017, MaxMem=  1048576000 cpu:         0.3
 (Enter /mnt/data/applications/G09/g09/l716.exe)
 Dipole        = 0.00000000D+00 0.00000000D+00 0.00000000D+00
 Cartesian Forces:  Max     0.009298551 RMS     0.003850300
 Leave Link  716 at Tue Feb  7 16:33:22 2017, MaxMem=  1048576000 cpu:         0.3
 (Enter /mnt/data/applications/G09/g09/l120.exe)
 ONIOM: saving gridpoint  3
 ONIOM: restoring gridpoint  2
 ONIOM: restoring gridpoint  2 on chk file.
 ONIOM: generating point  2 -- high level on model system.
 Leave Link  120 at Tue Feb  7 16:33:22 2017, MaxMem=  1048576000 cpu:         0.0
 (Enter /mnt/data/applications/G09/g09/l301.exe)
 Standard basis: 6-31G(d) (6D, 7F)
 Ernie: Thresh=  0.10000D-02 Tol=  0.10000D-05 Strict=F.
    23 basis functions,    44 primitive gaussians,    23 cartesian basis functions
     5 alpha electrons        5 beta electrons
       nuclear repulsion energy        13.3982992607 Hartrees.
 IExCor=  402 DFT=T Ex+Corr=B3LYP ExCW=0 ScaHFX=  0.200000
 ScaDFX=  0.800000  0.720000  1.000000  0.810000 ScalE2=  1.000000  1.000000
 IRadAn=      0 IRanWt=     -1 IRanGd=            0 ICorTp=0 IEmpDi=  4
 NAtoms=    8 NActive=    5 NUniq=    5 SFac= 1.00D+00 NAtFMM=   60 NAOKFM=F Big=F
 Integral buffers will be    131072 words long.
 Raffenetti 2 integral format.
 Two-electron integral symmetry is turned off.
 Leave Link  301 at Tue Feb  7 16:33:22 2017, MaxMem=  1048576000 cpu:         0.4
 (Enter /mnt/data/applications/G09/g09/l302.exe)
 NPDir=0 NMtPBC=     1 NCelOv=     1 NCel=       1 NClECP=     1 NCelD=      1
         NCelK=      1 NCelE2=     1 NClLst=     1 CellRange=     0.0.
 One-electron integrals computed using PRISM.
 NBasis=    23 RedAO= T EigKep=  1.79D-02  NBF=    23
 NBsUse=    23 1.00D-06 EigRej= -1.00D+00 NBFU=    23
 Precomputing XC quadrature grid using
 IXCGrd= 4 IRadAn=           0 IRanWt=          -1 IRanGd=           0 AccXCQ= 0.00D+00.
 Generated NRdTot=       0 NPtTot=           0 NUsed=           0 NTot=          32
 NSgBfM=    23    23    23    23    23 MxSgAt=     5 MxSgA2=     5.
 Leave Link  302 at Tue Feb  7 16:33:23 2017, MaxMem=  1048576000 cpu:         1.7
 (Enter /mnt/data/applications/G09/g09/l303.exe)
 DipDrv:  MaxL=1.
 Leave Link  303 at Tue Feb  7 16:33:23 2017, MaxMem=  1048576000 cpu:         0.3
 (Enter /mnt/data/applications/G09/g09/l401.exe)
 Initial guess from the checkpoint file:  "A_2_UFF.chk"
 B after Tr=     0.006260    0.007869    0.012964
         Rot=    1.000000    0.000033    0.000048    0.000071 Ang=   0.01 deg.
 Guess basis will be translated and rotated to current coordinates.
 JPrj=2 DoOrth=T DoCkMO=T.
 Generating alternative initial guess.
 ExpMin= 1.61D-01 ExpMax= 3.05D+03 ExpMxC= 4.57D+02 IAcc=1 IRadAn=         1 AccDes= 0.00D+00
 Harris functional with IExCor=  402 and IRadAn=       1 diagonalized for initial guess.
 HarFok:  IExCor=  402 AccDes= 0.00D+00 IRadAn=         1 IDoV= 1 UseB2=F ITyADJ=14
 ICtDFT=  3500011 ScaDFX=  1.000000  1.000000  1.000000  1.000000
 FoFCou: FMM=F IPFlag=           0 FMFlag=      100000 FMFlg1=           0
         NFxFlg=           0 DoJE=T BraDBF=F KetDBF=T FulRan=T
         wScrn=  0.000000 ICntrl=     500 IOpCl=  0 I1Cent=   200000004 NGrid=           0
         NMat0=    1 NMatS0=      1 NMatT0=    0 NMatD0=    1 NMtDS0=    0 NMtDT0=    0
 Symmetry not used in FoFCou.
 Harris En= -40.5612472178296    
 Leave Link  401 at Tue Feb  7 16:33:23 2017, MaxMem=  1048576000 cpu:         1.9
 (Enter /mnt/data/applications/G09/g09/l502.exe)
 Closed shell SCF:
 Using DIIS extrapolation, IDIIS=  1040.
 Two-electron integral symmetry not used.
 Keep R1 ints in memory in canonical form, NReq=911833.
 IVT=       13951 IEndB=       13951 NGot=  1048576000 MDV=  1048523824
 LenX=  1048523824 LenY=  1048522854
 Requested convergence on RMS density matrix=1.00D-08 within 100 cycles.
 Requested convergence on MAX density matrix=1.00D-06.
 Requested convergence on             energy=1.00D-06.
 No special actions if energy rises.
 FoFCou: FMM=F IPFlag=           0 FMFlag=           0 FMFlg1=           0
         NFxFlg=           0 DoJE=F BraDBF=F KetDBF=F FulRan=T
         wScrn=  0.000000 ICntrl=     600 IOpCl=  0 I1Cent=           0 NGrid=           0
         NMat0=    1 NMatS0=    276 NMatT0=    0 NMatD0=    1 NMtDS0=    0 NMtDT0=    0
 Symmetry not used in FoFCou.
 Integral accuracy reduced to 1.0D-05 until final iterations.

 Cycle   1  Pass 0  IDiag  1:
 E= -40.5180102527242    
 DIIS: error= 2.82D-03 at cycle   1 NSaved=   1.
 NSaved= 1 IEnMin= 1 EnMin= -40.5180102527242     IErMin= 1 ErrMin= 2.82D-03
 ErrMax= 2.82D-03  0.00D+00 EMaxC= 1.00D-01 BMatC= 2.19D-04 BMatP= 2.19D-04
 IDIUse=3 WtCom= 9.72D-01 WtEn= 2.82D-02
 Coeff-Com:  0.100D+01
 Coeff-En:   0.100D+01
 Coeff:      0.100D+01
 Gap=     2.202 Goal=   None    Shift=    0.000
 GapD=    2.202 DampG=2.000 DampE=1.000 DampFc=2.0000 IDamp=-1.
 RMSDP=9.31D-04 MaxDP=5.62D-03              OVMax= 8.82D-03

 Cycle   2  Pass 0  IDiag  1:
 E= -40.5182921318430     Delta-E=       -0.000281879119 Rises=F Damp=F
 DIIS: error= 2.00D-03 at cycle   2 NSaved=   2.
 NSaved= 2 IEnMin= 2 EnMin= -40.5182921318430     IErMin= 2 ErrMin= 2.00D-03
 ErrMax= 2.00D-03  0.00D+00 EMaxC= 1.00D-01 BMatC= 7.16D-05 BMatP= 2.19D-04
 IDIUse=3 WtCom= 9.80D-01 WtEn= 2.00D-02
 Coeff-Com:  0.324D+00 0.676D+00
 Coeff-En:   0.000D+00 0.100D+01
 Coeff:      0.317D+00 0.683D+00
 Gap=     0.507 Goal=   None    Shift=    0.000
 RMSDP=4.10D-04 MaxDP=3.23D-03 DE=-2.82D-04 OVMax= 4.16D-03

 Cycle   3  Pass 0  IDiag  1:
 E= -40.5183494972980     Delta-E=       -0.000057365455 Rises=F Damp=F
 DIIS: error= 8.98D-04 at cycle   3 NSaved=   3.
 NSaved= 3 IEnMin= 3 EnMin= -40.5183494972980     IErMin= 3 ErrMin= 8.98D-04
 ErrMax= 8.98D-04  0.00D+00 EMaxC= 1.00D-01 BMatC= 1.51D-05 BMatP= 7.16D-05
 IDIUse=3 WtCom= 9.91D-01 WtEn= 8.98D-03
 Coeff-Com:  0.215D-01 0.315D+00 0.663D+00
 Coeff-En:   0.000D+00 0.136D+00 0.864D+00
 Coeff:      0.214D-01 0.313D+00 0.665D+00
 Gap=     0.507 Goal=   None    Shift=    0.000
 RMSDP=1.34D-04 MaxDP=1.10D-03 DE=-5.74D-05 OVMax= 1.28D-03

 Cycle   4  Pass 0  IDiag  1:
 E= -40.5183645077132     Delta-E=       -0.000015010415 Rises=F Damp=F
 DIIS: error= 5.50D-05 at cycle   4 NSaved=   4.
 NSaved= 4 IEnMin= 4 EnMin= -40.5183645077132     IErMin= 4 ErrMin= 5.50D-05
 ErrMax= 5.50D-05  0.00D+00 EMaxC= 1.00D-01 BMatC= 1.13D-07 BMatP= 1.51D-05
 IDIUse=1 WtCom= 1.00D+00 WtEn= 0.00D+00
 Coeff-Com: -0.542D-02 0.455D-01 0.147D+00 0.813D+00
 Coeff:     -0.542D-02 0.455D-01 0.147D+00 0.813D+00
 Gap=     0.507 Goal=   None    Shift=    0.000
 RMSDP=1.68D-05 MaxDP=5.51D-05 DE=-1.50D-05 OVMax= 1.41D-04

 Cycle   5  Pass 0  IDiag  1:
 E= -40.5183646302857     Delta-E=       -0.000000122573 Rises=F Damp=F
 DIIS: error= 5.62D-06 at cycle   5 NSaved=   5.
 NSaved= 5 IEnMin= 5 EnMin= -40.5183646302857     IErMin= 5 ErrMin= 5.62D-06
 ErrMax= 5.62D-06  0.00D+00 EMaxC= 1.00D-01 BMatC= 1.04D-09 BMatP= 1.13D-07
 IDIUse=1 WtCom= 1.00D+00 WtEn= 0.00D+00
 Coeff-Com: -0.518D-03-0.163D-02 0.462D-03 0.979D-01 0.904D+00
 Coeff:     -0.518D-03-0.163D-02 0.462D-03 0.979D-01 0.904D+00
 Gap=     0.507 Goal=   None    Shift=    0.000
 RMSDP=1.54D-06 MaxDP=8.59D-06 DE=-1.23D-07 OVMax= 1.67D-05

 Initial convergence to 1.0D-05 achieved.  Increase integral accuracy.
 Cycle   6  Pass 1  IDiag  1:
 E= -40.5183757420994     Delta-E=       -0.000011111814 Rises=F Damp=F
 DIIS: error= 2.19D-06 at cycle   1 NSaved=   1.
 NSaved= 1 IEnMin= 1 EnMin= -40.5183757420994     IErMin= 1 ErrMin= 2.19D-06
 ErrMax= 2.19D-06  0.00D+00 EMaxC= 1.00D-01 BMatC= 8.80D-11 BMatP= 8.80D-11
 IDIUse=1 WtCom= 1.00D+00 WtEn= 0.00D+00
 Coeff-Com:  0.100D+01
 Coeff:      0.100D+01
 Gap=     0.507 Goal=   None    Shift=    0.000
 RMSDP=1.54D-06 MaxDP=8.59D-06 DE=-1.11D-05 OVMax= 6.61D-06

 Cycle   7  Pass 1  IDiag  1:
 E= -40.5183757422263     Delta-E=       -0.000000000127 Rises=F Damp=F
 DIIS: error= 9.25D-07 at cycle   2 NSaved=   2.
 NSaved= 2 IEnMin= 2 EnMin= -40.5183757422263     IErMin= 2 ErrMin= 9.25D-07
 ErrMax= 9.25D-07  0.00D+00 EMaxC= 1.00D-01 BMatC= 1.61D-11 BMatP= 8.80D-11
 IDIUse=1 WtCom= 1.00D+00 WtEn= 0.00D+00
 Coeff-Com:  0.194D+00 0.806D+00
 Coeff:      0.194D+00 0.806D+00
 Gap=     0.507 Goal=   None    Shift=    0.000
 RMSDP=2.07D-07 MaxDP=1.79D-06 DE=-1.27D-10 OVMax= 2.07D-06

 Cycle   8  Pass 1  IDiag  1:
 E= -40.5183757422344     Delta-E=       -0.000000000008 Rises=F Damp=F
 DIIS: error= 6.42D-07 at cycle   3 NSaved=   3.
 NSaved= 3 IEnMin= 3 EnMin= -40.5183757422344     IErMin= 3 ErrMin= 6.42D-07
 ErrMax= 6.42D-07  0.00D+00 EMaxC= 1.00D-01 BMatC= 7.53D-12 BMatP= 1.61D-11
 IDIUse=1 WtCom= 1.00D+00 WtEn= 0.00D+00
 Coeff-Com: -0.228D-01 0.406D+00 0.617D+00
 Coeff:     -0.228D-01 0.406D+00 0.617D+00
 Gap=     0.507 Goal=   None    Shift=    0.000
 RMSDP=1.04D-07 MaxDP=7.47D-07 DE=-8.05D-12 OVMax= 8.96D-07

 Cycle   9  Pass 1  IDiag  1:
 E= -40.5183757422421     Delta-E=       -0.000000000008 Rises=F Damp=F
 DIIS: error= 4.06D-08 at cycle   4 NSaved=   4.
 NSaved= 4 IEnMin= 4 EnMin= -40.5183757422421     IErMin= 4 ErrMin= 4.06D-08
 ErrMax= 4.06D-08  0.00D+00 EMaxC= 1.00D-01 BMatC= 4.18D-14 BMatP= 7.53D-12
 IDIUse=1 WtCom= 1.00D+00 WtEn= 0.00D+00
 Coeff-Com: -0.837D-02 0.880D-01 0.170D+00 0.750D+00
 Coeff:     -0.837D-02 0.880D-01 0.170D+00 0.750D+00
 Gap=     0.507 Goal=   None    Shift=    0.000
 RMSDP=8.87D-09 MaxDP=5.44D-08 DE=-7.70D-12 OVMax= 8.94D-08

 SCF Done:  E(RB3LYP) =  -40.5183757422     A.U. after    9 cycles
            NFock=  9  Conv=0.89D-08     -V/T= 2.0111
 KE= 4.007236381147D+01 PE=-1.198370161265D+02 EE= 2.584797731212D+01
 Leave Link  502 at Tue Feb  7 16:33:23 2017, MaxMem=  1048576000 cpu:         2.8
 (Enter /mnt/data/applications/G09/g09/l701.exe)
 Compute integral first derivatives.
 ... and contract with generalized density number  0.
 Leave Link  701 at Tue Feb  7 16:33:24 2017, MaxMem=  1048576000 cpu:         1.6
 (Enter /mnt/data/applications/G09/g09/l702.exe)
 L702 exits ... SP integral derivatives will be done elsewhere.
 Leave Link  702 at Tue Feb  7 16:33:24 2017, MaxMem=  1048576000 cpu:         0.2
 (Enter /mnt/data/applications/G09/g09/l703.exe)
 Compute integral first derivatives, UseDBF=F ICtDFT=           0.
 Integral derivatives from FoFJK, PRISM(SPDF).
 Calling FoFJK, ICntrl=      2127 FMM=F ISym2X=0 I1Cent= 0 IOpClX= 0 NMat=1 NMatS=1 NMatT=0.
 FoFJK:  IHMeth= 1 ICntrl=    2127 DoSepK=F KAlg= 0 I1Cent=   0 FoldK=F
 IRaf=         0 NMat=   1 IRICut=       1 DoRegI=T DoRafI=F ISym2E= 0.
 FoFCou: FMM=F IPFlag=           0 FMFlag=      100000 FMFlg1=         800
         NFxFlg=           0 DoJE=F BraDBF=F KetDBF=F FulRan=T
         wScrn=  0.000000 ICntrl=    2127 IOpCl=  0 I1Cent=           0 NGrid=           0
         NMat0=    1 NMatS0=      1 NMatT0=    0 NMatD0=    1 NMtDS0=    0 NMtDT0=    0
 Symmetry not used in FoFCou.
 Leave Link  703 at Tue Feb  7 16:33:24 2017, MaxMem=  1048576000 cpu:         2.2
 (Enter /mnt/data/applications/G09/g09/l716.exe)
 Dipole        = 2.17624663D-05 1.97879182D-05 4.25631785D-05
 Cartesian Forces:  Max     0.002365915 RMS     0.000722264
 Leave Link  716 at Tue Feb  7 16:33:24 2017, MaxMem=  1048576000 cpu:         0.3
 (Enter /mnt/data/applications/G09/g09/l120.exe)
 SvSCFP is copying densities from files   528 and   530 to   603.
 ONIOM: saving gridpoint  2
 ONIOM: restoring gridpoint  1
 ONIOM: restoring gridpoint  1 on chk file.
 ONIOM: generating point  1 -- low level on model system.
 Leave Link  120 at Tue Feb  7 16:33:24 2017, MaxMem=  1048576000 cpu:         0.3
 (Enter /mnt/data/applications/G09/g09/l301.exe)
 Standard basis: Dummy (5D, 7F)
     5 basis functions,     5 primitive gaussians,     5 cartesian basis functions
     3 alpha electrons        3 beta electrons
       nuclear repulsion energy         5.6520039169 Hartrees.
 IExCor=    0 DFT=F Ex=HF Corr=None ExCW=0 ScaHFX=  1.000000
 ScaDFX=  1.000000  1.000000  1.000000  1.000000 ScalE2=  1.000000  1.000000
 IRadAn=      0 IRanWt=     -1 IRanGd=            0 ICorTp=0 IEmpDi=  4
 NAtoms=    8 NActive=    5 NUniq=    5 SFac= 1.00D+00 NAtFMM=   60 NAOKFM=F Big=F
 Integral buffers will be    131072 words long.
 Raffenetti 1 integral format.
 Two-electron integral symmetry is turned off.
 Leave Link  301 at Tue Feb  7 16:33:25 2017, MaxMem=  1048576000 cpu:         0.3
 (Enter /mnt/data/applications/G09/g09/l402.exe)
 UFF calculation of energy and first derivatives.
 Energy per function type:
 Direct Coulomb + vdW (small)                           0.000000000
 Direct Coulomb (large)                                 0.000000000
 Direct vdW (large)                                   280.298768331
 Non-direct Coulomb + vdW (small)                       0.000000000
 Non-direct Coulomb (large)                             0.000000000
 Non-direct vdW (large)                              -280.298768331
 Harmonic stretch III                                   0.000571655
 UFF 3-term bend                                        0.000001826
 Energy per function class:
        Coulomb               0.000000000
    Vanderwaals               0.000000000
     Stretching               0.000571655
        Bending               0.000001826
 Energy=    5.734805143E-04 NIter=   0.
 Dipole moment=       0.000000       0.000000       0.000000
 Leave Link  402 at Tue Feb  7 16:33:25 2017, MaxMem=  1048576000 cpu:         0.3
 (Enter /mnt/data/applications/G09/g09/l716.exe)
 Dipole        = 0.00000000D+00 0.00000000D+00 0.00000000D+00
 Cartesian Forces:  Max     0.008725947 RMS     0.003794434
 Leave Link  716 at Tue Feb  7 16:33:25 2017, MaxMem=  1048576000 cpu:         0.3
 (Enter /mnt/data/applications/G09/g09/l120.exe)
 ONIOM: saving gridpoint  1
 ONIOM: restoring gridpoint  3
 ONIOM: calculating energy.
 ONIOM: gridpoint  1 method:  low   system:  model energy:     0.000573480514
 ONIOM: gridpoint  2 method:  high  system:  model energy:   -40.518375742242
 ONIOM: gridpoint  3 method:  low   system:  real  energy:     0.000895015733
 ONIOM: extrapolated energy =     -40.518054207023
 ONIOM: calculating first derivatives.
 ONIOM: calculating electric field derivatives.
 ONIOM: Integrating ONIOM file  4 number   619
 ONIOM: Dipole        = 2.17624663D-05 1.97879182D-05 4.25631785D-05
 ONIOM: Dipole moment (Debye):
    X=     0.0001    Y=     0.0001    Z=     0.0001  Tot=     0.0001
 ONIOM: Integrating ONIOM file  5 number   695
 Leave Link  120 at Tue Feb  7 16:33:25 2017, MaxMem=  1048576000 cpu:         0.0
 (Enter /mnt/data/applications/G09/g09/l716.exe)
 Dipole        = 2.17624663D-05 1.97879182D-05 4.25631785D-05
 -------------------------------------------------------------------
 Center     Atomic                   Forces (Hartrees/Bohr)
 Number     Number              X              Y              Z
 -------------------------------------------------------------------
      1        6           0.000167819    0.000239257    0.000411877
      2        1          -0.000280871   -0.000384599   -0.000675351
      3        1          -0.000276038   -0.000397441   -0.000668804
      4        1          -0.000266441   -0.000388096   -0.000677937
      5        6          -0.001118616   -0.001580527   -0.002738104
      6        1          -0.001626729    0.004761986    0.000088087
      7        1          -0.001630637   -0.002300887    0.004168363
      8        1           0.005031512    0.000050307    0.000091870
 -------------------------------------------------------------------
 Cartesian Forces:  Max     0.005031512 RMS     0.001931462
 Leave Link  716 at Tue Feb  7 16:33:25 2017, MaxMem=  1048576000 cpu:         0.3
 (Enter /mnt/data/applications/G09/g09/l103.exe)

 GradGradGradGradGradGradGradGradGradGradGradGradGradGradGradGradGradGrad
 Berny optimization.
 Using GEDIIS/GDIIS optimizer.
 FormGI is forming the generalized inverse of G from B-inverse, IUseBI=4.
 Internal  Forces:  Max     0.005032387 RMS     0.001732020
 Search for a local minimum.
 Step number   2 out of a maximum of   38
 All quantities printed in internal units (Hartrees-Bohrs-Radians)
 RMS Force = .17320D-02 SwitMx=.10000D-02 MixMth= 1
 Mixed Optimization -- RFO/linear search
 Update second derivatives using D2CorX and points    1    2
 DE= -4.22D-03 DEPred=-3.90D-03 R= 1.08D+00
 TightC=F SS=  1.41D+00  RLast= 1.46D-01 DXNew= 5.0454D-01 4.3719D-01
 Trust test= 1.08D+00 RLast= 1.46D-01 DXMaxT set to 4.37D-01
 ITU=  1  0
 Use linear search instead of GDIIS.
     Eigenvalues ---    0.00237   0.05648   0.05648   0.05696   0.05696
     Eigenvalues ---    0.15858   0.16000   0.16000   0.16000   0.16000
     Eigenvalues ---    0.16041   0.29890   0.30891   0.37230   0.37230
     Eigenvalues ---    0.37230   0.37230   0.39268
 RFO step:  Lambda=-1.91397132D-04 EMin= 2.36824104D-03
 Quartic linear search produced a step of  0.12308.
 Iteration  1 RMS(Cart)=  0.00771611 RMS(Int)=  0.00001470
 Iteration  2 RMS(Cart)=  0.00001004 RMS(Int)=  0.00000806
 Iteration  3 RMS(Cart)=  0.00000000 RMS(Int)=  0.00000806
 ITry= 1 IFail=0 DXMaxC= 1.84D-02 DCOld= 1.00D+10 DXMaxT= 4.37D-01 DXLimC= 3.00D+00 Rises=F
 Variable       Old X    -DE/DX   Delta X   Delta X   Delta X     New X
                                 (Linear)    (Quad)   (Total)
    R1        2.06725   0.00027   0.00557  -0.00364   0.00192   2.06917
    R2        2.06725   0.00027   0.00557  -0.00365   0.00192   2.06916
    R3        2.06724   0.00027   0.00557  -0.00365   0.00192   2.06916
    R4        2.84616   0.00197  -0.00788   0.01408   0.00621   2.85237
    R5        2.08172   0.00503   0.00735   0.00929   0.01664   2.09835
    R6        2.08172   0.00503   0.00735   0.00929   0.01664   2.09835
    R7        2.08172   0.00503   0.00735   0.00929   0.01664   2.09835
    A1        1.90837  -0.00081  -0.00028  -0.00544  -0.00573   1.90264
    A2        1.90839  -0.00081  -0.00028  -0.00543  -0.00573   1.90266
    A3        1.91286   0.00080   0.00027   0.00542   0.00567   1.91853
    A4        1.90839  -0.00081  -0.00028  -0.00543  -0.00572   1.90266
    A5        1.91288   0.00080   0.00028   0.00541   0.00567   1.91854
    A6        1.91290   0.00080   0.00028   0.00540   0.00566   1.91856
    A7        1.91736   0.00007   0.00083  -0.00017   0.00066   1.91802
    A8        1.91735   0.00007   0.00083  -0.00016   0.00066   1.91802
    A9        1.91735   0.00007   0.00083  -0.00016   0.00067   1.91801
   A10        1.90387  -0.00007  -0.00083   0.00016  -0.00067   1.90320
   A11        1.90386  -0.00007  -0.00083   0.00016  -0.00067   1.90319
   A12        1.90386  -0.00007  -0.00083   0.00016  -0.00067   1.90319
    D1        3.14001   0.00000   0.00004   0.00120   0.00125   3.14125
    D2       -1.04877   0.00000   0.00004   0.00120   0.00125  -1.04753
    D3        1.04561   0.00000   0.00004   0.00121   0.00125   1.04686
    D4        1.04564   0.00000   0.00005   0.00120   0.00125   1.04688
    D5        3.14004   0.00000   0.00005   0.00120   0.00125   3.14129
    D6       -1.04876   0.00000   0.00005   0.00120   0.00125  -1.04751
    D7       -1.04878   0.00000   0.00004   0.00121   0.00125  -1.04753
    D8        1.04563   0.00000   0.00005   0.00120   0.00125   1.04687
    D9        3.14001   0.00000   0.00004   0.00121   0.00125   3.14126
         Item               Value     Threshold  Converged?
 Maximum Force            0.005032     0.000450     NO 
 RMS     Force            0.001732     0.000300     NO 
 Maximum Displacement     0.018422     0.001800     NO 
 RMS     Displacement     0.007716     0.001200     NO 
 Predicted change in Energy=-1.454721D-04
 Lowest energy point so far.  Saving SCF results.
 GradGradGradGradGradGradGradGradGradGradGradGradGradGradGradGradGradGrad

 Leave Link  103 at Tue Feb  7 16:33:25 2017, MaxMem=  1048576000 cpu:         0.0
 (Enter /mnt/data/applications/G09/g09/l202.exe)
                          Input orientation:                          
 ---------------------------------------------------------------------
 Center     Atomic      Atomic             Coordinates (Angstroms)
 Number     Number       Type             X           Y           Z
 ---------------------------------------------------------------------
      1          6    10061003        0.449846   -2.949084    0.011048
      2          1    10011000        0.810054   -3.983074    0.003968
      3          1    10011000        0.811437   -2.439204   -0.887951
      4          1    10011000       -0.645071   -2.952687    0.003116
      5          6    10061003        0.952996   -2.237551    1.243473
      6          1    10011000        0.587729   -1.188969    1.249984
      7          1    10011000        0.585767   -2.754830    2.154820
      8          1    10011000        2.063365   -2.234502    1.251162
 ---------------------------------------------------------------------
                    Distance matrix (angstroms):
                    1          2          3          4          5
     1  C    0.000000
     2  H    1.094959   0.000000
     3  H    1.094954   1.782991   0.000000
     4  H    1.094952   1.783000   1.782997   0.000000
     5  C    1.509408   2.145614   2.145617   2.145629   0.000000
     6  H    2.156845   3.067411   2.486745   2.487002   1.110399
     7  H    2.156843   2.486977   3.067410   2.486753   1.110400
     8  H    2.156839   2.486722   2.486972   3.067415   1.110401
                    6          7          8
     6  H    0.000000
     7  H    1.808495   0.000000
     8  H    1.808493   1.808490   0.000000
 Symmetry turned off by external request.
 Stoichiometry    C2H6
 Framework group  C1[X(C2H6)]
 Deg. of freedom    18
 Full point group                 C1      NOp   1
 Rotational constants (GHZ):     77.7483528     20.5071049     20.5070934
 Leave Link  202 at Tue Feb  7 16:33:25 2017, MaxMem=  1048576000 cpu:         0.0
 (Enter /mnt/data/applications/G09/g09/l120.exe)
 ONIOM: saving gridpoint 17
 ONIOM: restoring gridpoint  3
 ONIOM: restoring gridpoint  3 on chk file.
 ONIOM: generating point  3 -- low level on real system.
 Leave Link  120 at Tue Feb  7 16:33:25 2017, MaxMem=  1048576000 cpu:         0.0
 (Enter /mnt/data/applications/G09/g09/l301.exe)
 Standard basis: Dummy (5D, 7F)
     8 basis functions,     8 primitive gaussians,     8 cartesian basis functions
     5 alpha electrons        5 beta electrons
       nuclear repulsion energy        13.6758040325 Hartrees.
 IExCor=    0 DFT=F Ex=HF Corr=None ExCW=0 ScaHFX=  1.000000
 ScaDFX=  1.000000  1.000000  1.000000  1.000000 ScalE2=  1.000000  1.000000
 IRadAn=      0 IRanWt=     -1 IRanGd=            0 ICorTp=0 IEmpDi=  4
 NAtoms=    8 NActive=    8 NUniq=    8 SFac= 1.00D+00 NAtFMM=   60 NAOKFM=F Big=F
 Integral buffers will be    131072 words long.
 Raffenetti 1 integral format.
 Two-electron integral symmetry is turned off.
 Leave Link  301 at Tue Feb  7 16:33:25 2017, MaxMem=  1048576000 cpu:         0.3
 (Enter /mnt/data/applications/G09/g09/l402.exe)
 UFF calculation of energy and first derivatives.
 Energy per function type:
 Direct Coulomb + vdW (small)                           0.000264320
 Direct Coulomb (large)                                 0.000000000
 Direct vdW (large)                                   392.354977129
 Non-direct Coulomb + vdW (small)                       0.000000000
 Non-direct Coulomb (large)                             0.000000000
 Non-direct vdW (large)                              -392.354977129
 Harmonic stretch III                                   0.000343637
 UFF 3-term bend                                        0.000054295
 UFF torsion w/ sp3 V                                   0.000000001
 Energy per function class:
        Coulomb               0.000000000
    Vanderwaals               0.000264320
     Stretching               0.000343637
        Bending               0.000054295
        Torsion               0.000000001
 Energy=    6.622522941E-04 NIter=   0.
 Dipole moment=       0.000000       0.000000       0.000000
 Leave Link  402 at Tue Feb  7 16:33:26 2017, MaxMem=  1048576000 cpu:         0.3
 (Enter /mnt/data/applications/G09/g09/l716.exe)
 Dipole        = 0.00000000D+00 0.00000000D+00 0.00000000D+00
 Cartesian Forces:  Max     0.008675056 RMS     0.003360172
 Leave Link  716 at Tue Feb  7 16:33:26 2017, MaxMem=  1048576000 cpu:         0.3
 (Enter /mnt/data/applications/G09/g09/l120.exe)
 ONIOM: saving gridpoint  3
 ONIOM: restoring gridpoint  2
 ONIOM: restoring gridpoint  2 on chk file.
 ONIOM: generating point  2 -- high level on model system.
 Leave Link  120 at Tue Feb  7 16:33:26 2017, MaxMem=  1048576000 cpu:         0.0
 (Enter /mnt/data/applications/G09/g09/l301.exe)
 Standard basis: 6-31G(d) (6D, 7F)
 Ernie: Thresh=  0.10000D-02 Tol=  0.10000D-05 Strict=F.
    23 basis functions,    44 primitive gaussians,    23 cartesian basis functions
     5 alpha electrons        5 beta electrons
       nuclear repulsion energy        13.3817227295 Hartrees.
 IExCor=  402 DFT=T Ex+Corr=B3LYP ExCW=0 ScaHFX=  0.200000
 ScaDFX=  0.800000  0.720000  1.000000  0.810000 ScalE2=  1.000000  1.000000
 IRadAn=      0 IRanWt=     -1 IRanGd=            0 ICorTp=0 IEmpDi=  4
 NAtoms=    8 NActive=    5 NUniq=    5 SFac= 1.00D+00 NAtFMM=   60 NAOKFM=F Big=F
 Integral buffers will be    131072 words long.
 Raffenetti 2 integral format.
 Two-electron integral symmetry is turned off.
 Leave Link  301 at Tue Feb  7 16:33:26 2017, MaxMem=  1048576000 cpu:         0.4
 (Enter /mnt/data/applications/G09/g09/l302.exe)
 NPDir=0 NMtPBC=     1 NCelOv=     1 NCel=       1 NClECP=     1 NCelD=      1
         NCelK=      1 NCelE2=     1 NClLst=     1 CellRange=     0.0.
 One-electron integrals computed using PRISM.
 NBasis=    23 RedAO= T EigKep=  1.80D-02  NBF=    23
 NBsUse=    23 1.00D-06 EigRej= -1.00D+00 NBFU=    23
 Precomputing XC quadrature grid using
 IXCGrd= 4 IRadAn=           0 IRanWt=          -1 IRanGd=           0 AccXCQ= 0.00D+00.
 Generated NRdTot=       0 NPtTot=           0 NUsed=           0 NTot=          32
 NSgBfM=    23    23    23    23    23 MxSgAt=     5 MxSgA2=     5.
 Leave Link  302 at Tue Feb  7 16:33:26 2017, MaxMem=  1048576000 cpu:         1.7
 (Enter /mnt/data/applications/G09/g09/l303.exe)
 DipDrv:  MaxL=1.
 Leave Link  303 at Tue Feb  7 16:33:26 2017, MaxMem=  1048576000 cpu:         0.3
 (Enter /mnt/data/applications/G09/g09/l401.exe)
 Initial guess from the checkpoint file:  "A_2_UFF.chk"
 B after Tr=     0.001428   -0.001635   -0.004987
         Rot=    1.000000    0.000104    0.000147    0.000259 Ang=   0.04 deg.
 Guess basis will be translated and rotated to current coordinates.
 JPrj=2 DoOrth=T DoCkMO=T.
 Leave Link  401 at Tue Feb  7 16:33:27 2017, MaxMem=  1048576000 cpu:         0.8
 (Enter /mnt/data/applications/G09/g09/l502.exe)
 Closed shell SCF:
 Using DIIS extrapolation, IDIIS=  1040.
 Two-electron integral symmetry not used.
 Keep R1 ints in memory in canonical form, NReq=911833.
 IVT=       13951 IEndB=       13951 NGot=  1048576000 MDV=  1048523824
 LenX=  1048523824 LenY=  1048522854
 Requested convergence on RMS density matrix=1.00D-08 within 100 cycles.
 Requested convergence on MAX density matrix=1.00D-06.
 Requested convergence on             energy=1.00D-06.
 No special actions if energy rises.
 FoFCou: FMM=F IPFlag=           0 FMFlag=           0 FMFlg1=           0
         NFxFlg=           0 DoJE=F BraDBF=F KetDBF=F FulRan=T
         wScrn=  0.000000 ICntrl=     600 IOpCl=  0 I1Cent=           0 NGrid=           0
         NMat0=    1 NMatS0=    276 NMatT0=    0 NMatD0=    1 NMtDS0=    0 NMtDT0=    0
 Symmetry not used in FoFCou.

 Cycle   1  Pass 1  IDiag  1:
 E= -40.5183501064078    
 DIIS: error= 4.05D-04 at cycle   1 NSaved=   1.
 NSaved= 1 IEnMin= 1 EnMin= -40.5183501064078     IErMin= 1 ErrMin= 4.05D-04
 ErrMax= 4.05D-04  0.00D+00 EMaxC= 1.00D-01 BMatC= 4.46D-06 BMatP= 4.46D-06
 IDIUse=3 WtCom= 9.96D-01 WtEn= 4.05D-03
 Coeff-Com:  0.100D+01
 Coeff-En:   0.100D+01
 Coeff:      0.100D+01
 Gap=     2.234 Goal=   None    Shift=    0.000
 RMSDP=1.05D-04 MaxDP=5.25D-04              OVMax= 7.98D-04

 Cycle   2  Pass 1  IDiag  1:
 E= -40.5183543758090     Delta-E=       -0.000004269401 Rises=F Damp=F
 DIIS: error= 2.21D-04 at cycle   2 NSaved=   2.
 NSaved= 2 IEnMin= 2 EnMin= -40.5183543758090     IErMin= 2 ErrMin= 2.21D-04
 ErrMax= 2.21D-04  0.00D+00 EMaxC= 1.00D-01 BMatC= 9.50D-07 BMatP= 4.46D-06
 IDIUse=3 WtCom= 9.98D-01 WtEn= 2.21D-03
 Coeff-Com:  0.262D+00 0.738D+00
 Coeff-En:   0.000D+00 0.100D+01
 Coeff:      0.261D+00 0.739D+00
 Gap=     0.506 Goal=   None    Shift=    0.000
 RMSDP=5.18D-05 MaxDP=3.70D-04 DE=-4.27D-06 OVMax= 4.67D-04

 Cycle   3  Pass 1  IDiag  1:
 E= -40.5183550582929     Delta-E=       -0.000000682484 Rises=F Damp=F
 DIIS: error= 1.25D-04 at cycle   3 NSaved=   3.
 NSaved= 3 IEnMin= 3 EnMin= -40.5183550582929     IErMin= 3 ErrMin= 1.25D-04
 ErrMax= 1.25D-04  0.00D+00 EMaxC= 1.00D-01 BMatC= 2.98D-07 BMatP= 9.50D-07
 IDIUse=3 WtCom= 9.99D-01 WtEn= 1.25D-03
 Coeff-Com:  0.239D-01 0.361D+00 0.615D+00
 Coeff-En:   0.000D+00 0.212D+00 0.788D+00
 Coeff:      0.239D-01 0.361D+00 0.616D+00
 Gap=     0.506 Goal=   None    Shift=    0.000
 RMSDP=1.91D-05 MaxDP=1.48D-04 DE=-6.82D-07 OVMax= 1.70D-04

 Cycle   4  Pass 1  IDiag  1:
 E= -40.5183553553220     Delta-E=       -0.000000297029 Rises=F Damp=F
 DIIS: error= 8.81D-06 at cycle   4 NSaved=   4.
 NSaved= 4 IEnMin= 4 EnMin= -40.5183553553220     IErMin= 4 ErrMin= 8.81D-06
 ErrMax= 8.81D-06  0.00D+00 EMaxC= 1.00D-01 BMatC= 2.64D-09 BMatP= 2.98D-07
 IDIUse=1 WtCom= 1.00D+00 WtEn= 0.00D+00
 Coeff-Com: -0.671D-02 0.659D-01 0.161D+00 0.780D+00
 Coeff:     -0.671D-02 0.659D-01 0.161D+00 0.780D+00
 Gap=     0.506 Goal=   None    Shift=    0.000
 RMSDP=2.05D-06 MaxDP=1.13D-05 DE=-2.97D-07 OVMax= 2.52D-05

 Cycle   5  Pass 1  IDiag  1:
 E= -40.5183553580103     Delta-E=       -0.000000002688 Rises=F Damp=F
 DIIS: error= 4.28D-07 at cycle   5 NSaved=   5.
 NSaved= 5 IEnMin= 5 EnMin= -40.5183553580103     IErMin= 5 ErrMin= 4.28D-07
 ErrMax= 4.28D-07  0.00D+00 EMaxC= 1.00D-01 BMatC= 7.88D-12 BMatP= 2.64D-09
 IDIUse=1 WtCom= 1.00D+00 WtEn= 0.00D+00
 Coeff-Com: -0.102D-02 0.525D-02 0.136D-01 0.105D+00 0.877D+00
 Coeff:     -0.102D-02 0.525D-02 0.136D-01 0.105D+00 0.877D+00
 Gap=     0.506 Goal=   None    Shift=    0.000
 RMSDP=1.67D-07 MaxDP=1.01D-06 DE=-2.69D-09 OVMax= 1.81D-06

 Cycle   6  Pass 1  IDiag  1:
 E= -40.5183553580215     Delta-E=       -0.000000000011 Rises=F Damp=F
 DIIS: error= 2.04D-08 at cycle   6 NSaved=   6.
 NSaved= 6 IEnMin= 6 EnMin= -40.5183553580215     IErMin= 6 ErrMin= 2.04D-08
 ErrMax= 2.04D-08  0.00D+00 EMaxC= 1.00D-01 BMatC= 2.04D-14 BMatP= 7.88D-12
 IDIUse=1 WtCom= 1.00D+00 WtEn= 0.00D+00
 Coeff-Com:  0.317D-04-0.300D-03-0.862D-03-0.505D-02 0.136D-01 0.993D+00
 Coeff:      0.317D-04-0.300D-03-0.862D-03-0.505D-02 0.136D-01 0.993D+00
 Gap=     0.506 Goal=   None    Shift=    0.000
 RMSDP=9.70D-09 MaxDP=5.30D-08 DE=-1.12D-11 OVMax= 1.04D-07

 SCF Done:  E(RB3LYP) =  -40.5183553580     A.U. after    6 cycles
            NFock=  6  Conv=0.97D-08     -V/T= 2.0113
 KE= 4.006542210009D+01 PE=-1.197990074447D+02 EE= 2.583350725709D+01
 Leave Link  502 at Tue Feb  7 16:33:27 2017, MaxMem=  1048576000 cpu:         2.8
 (Enter /mnt/data/applications/G09/g09/l701.exe)
 Compute integral first derivatives.
 ... and contract with generalized density number  0.
 Leave Link  701 at Tue Feb  7 16:33:27 2017, MaxMem=  1048576000 cpu:         1.6
 (Enter /mnt/data/applications/G09/g09/l702.exe)
 L702 exits ... SP integral derivatives will be done elsewhere.
 Leave Link  702 at Tue Feb  7 16:33:27 2017, MaxMem=  1048576000 cpu:         0.3
 (Enter /mnt/data/applications/G09/g09/l703.exe)
 Compute integral first derivatives, UseDBF=F ICtDFT=           0.
 Integral derivatives from FoFJK, PRISM(SPDF).
 Calling FoFJK, ICntrl=      2127 FMM=F ISym2X=0 I1Cent= 0 IOpClX= 0 NMat=1 NMatS=1 NMatT=0.
 FoFJK:  IHMeth= 1 ICntrl=    2127 DoSepK=F KAlg= 0 I1Cent=   0 FoldK=F
 IRaf=         0 NMat=   1 IRICut=       1 DoRegI=T DoRafI=F ISym2E= 0.
 FoFCou: FMM=F IPFlag=           0 FMFlag=      100000 FMFlg1=         800
         NFxFlg=           0 DoJE=F BraDBF=F KetDBF=F FulRan=T
         wScrn=  0.000000 ICntrl=    2127 IOpCl=  0 I1Cent=           0 NGrid=           0
         NMat0=    1 NMatS0=      1 NMatT0=    0 NMatD0=    1 NMtDS0=    0 NMtDT0=    0
 Symmetry not used in FoFCou.
 Leave Link  703 at Tue Feb  7 16:33:28 2017, MaxMem=  1048576000 cpu:         2.2
 (Enter /mnt/data/applications/G09/g09/l716.exe)
 Dipole        =-8.98513607D-04-1.27910857D-03-2.20993027D-03
 Cartesian Forces:  Max     0.002991202 RMS     0.000889955
 Leave Link  716 at Tue Feb  7 16:33:28 2017, MaxMem=  1048576000 cpu:         0.3
 (Enter /mnt/data/applications/G09/g09/l120.exe)
 SvSCFP is copying densities from files   528 and   530 to   603.
 ONIOM: saving gridpoint  2
 ONIOM: restoring gridpoint  1
 ONIOM: restoring gridpoint  1 on chk file.
 ONIOM: generating point  1 -- low level on model system.
 Leave Link  120 at Tue Feb  7 16:33:28 2017, MaxMem=  1048576000 cpu:         0.3
 (Enter /mnt/data/applications/G09/g09/l301.exe)
 Standard basis: Dummy (5D, 7F)
     5 basis functions,     5 primitive gaussians,     5 cartesian basis functions
     3 alpha electrons        3 beta electrons
       nuclear repulsion energy         5.6450373776 Hartrees.
 IExCor=    0 DFT=F Ex=HF Corr=None ExCW=0 ScaHFX=  1.000000
 ScaDFX=  1.000000  1.000000  1.000000  1.000000 ScalE2=  1.000000  1.000000
 IRadAn=      0 IRanWt=     -1 IRanGd=            0 ICorTp=0 IEmpDi=  4
 NAtoms=    8 NActive=    5 NUniq=    5 SFac= 1.00D+00 NAtFMM=   60 NAOKFM=F Big=F
 Integral buffers will be    131072 words long.
 Raffenetti 1 integral format.
 Two-electron integral symmetry is turned off.
 Leave Link  301 at Tue Feb  7 16:33:28 2017, MaxMem=  1048576000 cpu:         0.3
 (Enter /mnt/data/applications/G09/g09/l402.exe)
 UFF calculation of energy and first derivatives.
 Energy per function type:
 Direct Coulomb + vdW (small)                           0.000000000
 Direct Coulomb (large)                                 0.000000000
 Direct vdW (large)                                   276.125451348
 Non-direct Coulomb + vdW (small)                       0.000000000
 Non-direct Coulomb (large)                             0.000000000
 Non-direct vdW (large)                              -276.125451348
 Harmonic stretch III                                   0.000478535
 UFF 3-term bend                                        0.000022787
 Energy per function class:
        Coulomb               0.000000000
    Vanderwaals               0.000000000
     Stretching               0.000478535
        Bending               0.000022787
 Energy=    5.013216938E-04 NIter=   0.
 Dipole moment=       0.000000       0.000000       0.000000
 Leave Link  402 at Tue Feb  7 16:33:28 2017, MaxMem=  1048576000 cpu:         0.3
 (Enter /mnt/data/applications/G09/g09/l716.exe)
 Dipole        = 0.00000000D+00 0.00000000D+00 0.00000000D+00
 Cartesian Forces:  Max     0.008075281 RMS     0.003531983
[...]
         NFxFlg=           0 DoJE=F BraDBF=F KetDBF=F FulRan=T
         wScrn=  0.000000 ICntrl=     600 IOpCl=  0 I1Cent=           0 NGrid=           0
         NMat0=    1 NMatS0=    276 NMatT0=    0 NMatD0=    1 NMtDS0=    0 NMtDT0=    0
 Symmetry not used in FoFCou.

 Cycle   1  Pass 1  IDiag  1:
 E= -40.5183639070976    
 DIIS: error= 9.44D-05 at cycle   1 NSaved=   1.
 NSaved= 1 IEnMin= 1 EnMin= -40.5183639070976     IErMin= 1 ErrMin= 9.44D-05
 ErrMax= 9.44D-05  0.00D+00 EMaxC= 1.00D-01 BMatC= 3.56D-07 BMatP= 3.56D-07
 IDIUse=1 WtCom= 1.00D+00 WtEn= 0.00D+00
 Coeff-Com:  0.100D+01
 Coeff:      0.100D+01
 Gap=     2.237 Goal=   None    Shift=    0.000
 RMSDP=3.40D-05 MaxDP=2.18D-04              OVMax= 2.90D-04

 Cycle   2  Pass 1  IDiag  1:
 E= -40.5183641599498     Delta-E=       -0.000000252852 Rises=F Damp=F
 DIIS: error= 9.65D-05 at cycle   2 NSaved=   2.
 NSaved= 2 IEnMin= 2 EnMin= -40.5183641599498     IErMin= 1 ErrMin= 9.44D-05
 ErrMax= 9.65D-05  0.00D+00 EMaxC= 1.00D-01 BMatC= 1.68D-07 BMatP= 3.56D-07
 IDIUse=1 WtCom= 1.00D+00 WtEn= 0.00D+00
 Coeff-Com:  0.385D+00 0.615D+00
 Coeff:      0.385D+00 0.615D+00
 Gap=     0.506 Goal=   None    Shift=    0.000
 RMSDP=1.84D-05 MaxDP=1.36D-04 DE=-2.53D-07 OVMax= 1.65D-04

 Cycle   3  Pass 1  IDiag  1:
 E= -40.5183643137750     Delta-E=       -0.000000153825 Rises=F Damp=F
 DIIS: error= 3.11D-05 at cycle   3 NSaved=   3.
 NSaved= 3 IEnMin= 3 EnMin= -40.5183643137750     IErMin= 3 ErrMin= 3.11D-05
 ErrMax= 3.11D-05  0.00D+00 EMaxC= 1.00D-01 BMatC= 1.84D-08 BMatP= 1.68D-07
 IDIUse=1 WtCom= 1.00D+00 WtEn= 0.00D+00
 Coeff-Com:  0.231D-01 0.253D+00 0.724D+00
 Coeff:      0.231D-01 0.253D+00 0.724D+00
 Gap=     0.506 Goal=   None    Shift=    0.000
 RMSDP=4.58D-06 MaxDP=3.55D-05 DE=-1.54D-07 OVMax= 4.43D-05

 Cycle   4  Pass 1  IDiag  1:
 E= -40.5183643319977     Delta-E=       -0.000000018223 Rises=F Damp=F
 DIIS: error= 1.98D-06 at cycle   4 NSaved=   4.
 NSaved= 4 IEnMin= 4 EnMin= -40.5183643319977     IErMin= 4 ErrMin= 1.98D-06
 ErrMax= 1.98D-06  0.00D+00 EMaxC= 1.00D-01 BMatC= 1.14D-10 BMatP= 1.84D-08
 IDIUse=1 WtCom= 1.00D+00 WtEn= 0.00D+00
 Coeff-Com: -0.522D-02 0.446D-01 0.165D+00 0.796D+00
 Coeff:     -0.522D-02 0.446D-01 0.165D+00 0.796D+00
 Gap=     0.506 Goal=   None    Shift=    0.000
 RMSDP=4.54D-07 MaxDP=2.23D-06 DE=-1.82D-08 OVMax= 5.33D-06

 Cycle   5  Pass 1  IDiag  1:
 E= -40.5183643321148     Delta-E=       -0.000000000117 Rises=F Damp=F
 DIIS: error= 1.39D-07 at cycle   5 NSaved=   5.
 NSaved= 5 IEnMin= 5 EnMin= -40.5183643321148     IErMin= 5 ErrMin= 1.39D-07
 ErrMax= 1.39D-07  0.00D+00 EMaxC= 1.00D-01 BMatC= 6.49D-13 BMatP= 1.14D-10
 IDIUse=1 WtCom= 1.00D+00 WtEn= 0.00D+00
 Coeff-Com: -0.851D-03 0.262D-02 0.924D-02 0.990D-01 0.890D+00
 Coeff:     -0.851D-03 0.262D-02 0.924D-02 0.990D-01 0.890D+00
 Gap=     0.506 Goal=   None    Shift=    0.000
 RMSDP=4.60D-08 MaxDP=2.86D-07 DE=-1.17D-10 OVMax= 4.93D-07

 Cycle   6  Pass 1  IDiag  1:
 E= -40.5183643321157     Delta-E=       -0.000000000001 Rises=F Damp=F
 DIIS: error= 5.66D-09 at cycle   6 NSaved=   6.
 NSaved= 6 IEnMin= 6 EnMin= -40.5183643321157     IErMin= 6 ErrMin= 5.66D-09
 ErrMax= 5.66D-09  0.00D+00 EMaxC= 1.00D-01 BMatC= 1.64D-15 BMatP= 6.49D-13
 IDIUse=1 WtCom= 1.00D+00 WtEn= 0.00D+00
 Coeff-Com: -0.563D-05-0.977D-04-0.398D-03-0.174D-02 0.388D-01 0.963D+00
 Coeff:     -0.563D-05-0.977D-04-0.398D-03-0.174D-02 0.388D-01 0.963D+00
 Gap=     0.506 Goal=   None    Shift=    0.000
 RMSDP=2.64D-09 MaxDP=1.62D-08 DE=-9.09D-13 OVMax= 2.96D-08

 SCF Done:  E(RB3LYP) =  -40.5183643321     A.U. after    6 cycles
            NFock=  6  Conv=0.26D-08     -V/T= 2.0112
 KE= 4.006851596562D+01 PE=-1.198159636947D+02 EE= 2.583996394831D+01
 Leave Link  502 at Tue Feb  7 16:33:31 2017, MaxMem=  1048576000 cpu:         2.8
 (Enter /mnt/data/applications/G09/g09/l701.exe)
 Compute integral first derivatives.
 ... and contract with generalized density number  0.
 Leave Link  701 at Tue Feb  7 16:33:31 2017, MaxMem=  1048576000 cpu:         1.6
 (Enter /mnt/data/applications/G09/g09/l702.exe)
 L702 exits ... SP integral derivatives will be done elsewhere.
 Leave Link  702 at Tue Feb  7 16:33:31 2017, MaxMem=  1048576000 cpu:         0.3
 (Enter /mnt/data/applications/G09/g09/l703.exe)
 Compute integral first derivatives, UseDBF=F ICtDFT=           0.
 Integral derivatives from FoFJK, PRISM(SPDF).
 Calling FoFJK, ICntrl=      2127 FMM=F ISym2X=0 I1Cent= 0 IOpClX= 0 NMat=1 NMatS=1 NMatT=0.
 FoFJK:  IHMeth= 1 ICntrl=    2127 DoSepK=F KAlg= 0 I1Cent=   0 FoldK=F
 IRaf=         0 NMat=   1 IRICut=       1 DoRegI=T DoRafI=F ISym2E= 0.
 FoFCou: FMM=F IPFlag=           0 FMFlag=      100000 FMFlg1=         800
         NFxFlg=           0 DoJE=F BraDBF=F KetDBF=F FulRan=T
         wScrn=  0.000000 ICntrl=    2127 IOpCl=  0 I1Cent=           0 NGrid=           0
         NMat0=    1 NMatS0=      1 NMatT0=    0 NMatD0=    1 NMtDS0=    0 NMtDT0=    0
 Symmetry not used in FoFCou.
 Leave Link  703 at Tue Feb  7 16:33:31 2017, MaxMem=  1048576000 cpu:         2.2
 (Enter /mnt/data/applications/G09/g09/l716.exe)
 Dipole        =-6.86514068D-04-9.80634569D-04-1.69194235D-03
 Cartesian Forces:  Max     0.002852482 RMS     0.000809002
 Leave Link  716 at Tue Feb  7 16:33:32 2017, MaxMem=  1048576000 cpu:         0.3
 (Enter /mnt/data/applications/G09/g09/l120.exe)
 SvSCFP is copying densities from files   528 and   530 to   603.
 ONIOM: saving gridpoint  2
 ONIOM: restoring gridpoint  1
 ONIOM: restoring gridpoint  1 on chk file.
 ONIOM: generating point  1 -- low level on model system.
 Leave Link  120 at Tue Feb  7 16:33:32 2017, MaxMem=  1048576000 cpu:         0.3
 (Enter /mnt/data/applications/G09/g09/l301.exe)
 Standard basis: Dummy (5D, 7F)
     5 basis functions,     5 primitive gaussians,     5 cartesian basis functions
     3 alpha electrons        3 beta electrons
       nuclear repulsion energy         5.6481489193 Hartrees.
 IExCor=    0 DFT=F Ex=HF Corr=None ExCW=0 ScaHFX=  1.000000
 ScaDFX=  1.000000  1.000000  1.000000  1.000000 ScalE2=  1.000000  1.000000
 IRadAn=      0 IRanWt=     -1 IRanGd=            0 ICorTp=0 IEmpDi=  4
 NAtoms=    8 NActive=    5 NUniq=    5 SFac= 1.00D+00 NAtFMM=   60 NAOKFM=F Big=F
 Integral buffers will be    131072 words long.
 Raffenetti 1 integral format.
 Two-electron integral symmetry is turned off.
 Leave Link  301 at Tue Feb  7 16:33:32 2017, MaxMem=  1048576000 cpu:         0.3
 (Enter /mnt/data/applications/G09/g09/l402.exe)
 UFF calculation of energy and first derivatives.
 Energy per function type:
 Direct Coulomb + vdW (small)                           0.000000000
 Direct Coulomb (large)                                 0.000000000
 Direct vdW (large)                                   277.973470736
 Non-direct Coulomb + vdW (small)                       0.000000000
 Non-direct Coulomb (large)                             0.000000000
 Non-direct vdW (large)                              -277.973470736
 Harmonic stretch III                                   0.000518362
 UFF 3-term bend                                        0.000015832
 Energy per function class:
        Coulomb               0.000000000
    Vanderwaals               0.000000000
     Stretching               0.000518362
        Bending               0.000015832
 Energy=    5.341940799E-04 NIter=   0.
 Dipole moment=       0.000000       0.000000       0.000000
 Leave Link  402 at Tue Feb  7 16:33:32 2017, MaxMem=  1048576000 cpu:         0.3
 (Enter /mnt/data/applications/G09/g09/l716.exe)
 Dipole        = 0.00000000D+00 0.00000000D+00 0.00000000D+00
 Cartesian Forces:  Max     0.008364755 RMS     0.003654221
 Leave Link  716 at Tue Feb  7 16:33:32 2017, MaxMem=  1048576000 cpu:         0.3
 (Enter /mnt/data/applications/G09/g09/l120.exe)
 ONIOM: saving gridpoint  1
 ONIOM: restoring gridpoint  3
 ONIOM: calculating energy.
 ONIOM: gridpoint  1 method:  low   system:  model energy:     0.000534194080
 ONIOM: gridpoint  2 method:  high  system:  model energy:   -40.518364332116
 ONIOM: gridpoint  3 method:  low   system:  real  energy:     0.000701745663
 ONIOM: extrapolated energy =     -40.518196780533
 ONIOM: calculating first derivatives.
 ONIOM: calculating electric field derivatives.
 ONIOM: Integrating ONIOM file  4 number   619
 ONIOM: Dipole        =-6.86514068D-04-9.80634569D-04-1.69194235D-03
 ONIOM: Dipole moment (Debye):
    X=    -0.0017    Y=    -0.0025    Z=    -0.0043  Tot=     0.0053
 ONIOM: Integrating ONIOM file  5 number   695
 Leave Link  120 at Tue Feb  7 16:33:32 2017, MaxMem=  1048576000 cpu:         0.0
 (Enter /mnt/data/applications/G09/g09/l716.exe)
 Dipole        =-6.86514068D-04-9.80634569D-04-1.69194235D-03
 -------------------------------------------------------------------
 Center     Atomic                   Forces (Hartrees/Bohr)
 Number     Number              X              Y              Z
 -------------------------------------------------------------------
      1        6          -0.000067678   -0.000096451   -0.000166624
      2        1          -0.000012940    0.000033724   -0.000004791
      3        1          -0.000015113   -0.000020089    0.000026838
      4        1           0.000036779   -0.000004084   -0.000003976
      5        6           0.000057724    0.000082353    0.000142241
      6        1           0.000012264   -0.000022124    0.000010332
      7        1           0.000014479    0.000019226   -0.000013877
      8        1          -0.000025516    0.000007445    0.000009857
 -------------------------------------------------------------------
 Cartesian Forces:  Max     0.000166624 RMS     0.000057148
 Leave Link  716 at Tue Feb  7 16:33:32 2017, MaxMem=  1048576000 cpu:         0.3
 (Enter /mnt/data/applications/G09/g09/l103.exe)

 GradGradGradGradGradGradGradGradGradGradGradGradGradGradGradGradGradGrad
 Berny optimization.
 Using GEDIIS/GDIIS optimizer.
 FormGI is forming the generalized inverse of G from B-inverse, IUseBI=4.
 Internal  Forces:  Max     0.000181908 RMS     0.000037820
 Search for a local minimum.
 Step number   4 out of a maximum of   38
 All quantities printed in internal units (Hartrees-Bohrs-Radians)
 RMS Force = .37820D-04 SwitMx=.10000D-02 MixMth= 2
 Mixed Optimization -- En-DIIS/RFO-DIIS
 Swapping is turned off.
 Update second derivatives using D2CorX and points    1    2    3    4
 DE= -2.35D-06 DEPred=-2.56D-06 R= 9.19D-01
 TightC=F SS=  1.41D+00  RLast= 4.68D-03 DXNew= 7.3527D-01 1.4055D-02
 Trust test= 9.19D-01 RLast= 4.68D-03 DXMaxT set to 4.37D-01
 ITU=  1  1  1  0
     Eigenvalues ---    0.00237   0.05649   0.05649   0.05649   0.05650
     Eigenvalues ---    0.15999   0.16000   0.16000   0.16000   0.16001
     Eigenvalues ---    0.16318   0.29580   0.35616   0.37230   0.37230
     Eigenvalues ---    0.37230   0.37230   0.37409
 En-DIIS/RFO-DIIS IScMMF=        0 using points:     4    3
 RFO step:  Lambda=-6.73250909D-08.
 NNeg= 0 NP= 2 Switch=  2.50D-03 Rises=F DC=  2.35D-06 SmlDif=  1.00D-05
 RMS Error=  0.6386678086D-04 NUsed= 2 EDIIS=F
 DidBck=F Rises=F RFO-DIIS coefs:    0.92424    0.07576
 Iteration  1 RMS(Cart)=  0.00015463 RMS(Int)=  0.00000003
 Iteration  2 RMS(Cart)=  0.00000000 RMS(Int)=  0.00000003
 ITry= 1 IFail=0 DXMaxC= 2.81D-04 DCOld= 1.00D+10 DXMaxT= 4.37D-01 DXLimC= 3.00D+00 Rises=F
 Variable       Old X    -DE/DX   Delta X   Delta X   Delta X     New X
                                 (Linear)    (Quad)   (Total)
    R1        2.06819  -0.00004   0.00007  -0.00017  -0.00009   2.06809
    R2        2.06818  -0.00004   0.00007  -0.00017  -0.00009   2.06808
    R3        2.06817  -0.00004   0.00007  -0.00017  -0.00009   2.06808
    R4        2.85014   0.00018   0.00017   0.00034   0.00051   2.85065
    R5        2.09868  -0.00003  -0.00002  -0.00007  -0.00009   2.09858
    R6        2.09868  -0.00003  -0.00002  -0.00007  -0.00009   2.09858
    R7        2.09868  -0.00003  -0.00002  -0.00007  -0.00009   2.09859
    A1        1.90398  -0.00001  -0.00010   0.00011   0.00001   1.90398
    A2        1.90399  -0.00001  -0.00010   0.00011   0.00001   1.90400
    A3        1.91722   0.00001   0.00010  -0.00010   0.00000   1.91721
    A4        1.90399  -0.00001  -0.00010   0.00011   0.00001   1.90400
    A5        1.91723   0.00001   0.00010  -0.00011  -0.00001   1.91722
    A6        1.91725   0.00001   0.00010  -0.00011  -0.00001   1.91725
    A7        1.91730   0.00001   0.00005   0.00000   0.00006   1.91736
    A8        1.91729   0.00001   0.00006   0.00001   0.00006   1.91735
    A9        1.91728   0.00001   0.00006   0.00001   0.00006   1.91734
   A10        1.90394  -0.00001  -0.00006  -0.00001  -0.00006   1.90387
   A11        1.90393  -0.00001  -0.00006  -0.00001  -0.00006   1.90387
   A12        1.90393  -0.00001  -0.00006  -0.00001  -0.00006   1.90386
    D1        3.14123   0.00000   0.00000  -0.00001  -0.00001   3.14123
    D2       -1.04755   0.00000   0.00000  -0.00001  -0.00001  -1.04755
    D3        1.04684   0.00000   0.00000  -0.00001  -0.00001   1.04683
    D4        1.04686   0.00000   0.00000  -0.00001  -0.00001   1.04686
    D5        3.14127   0.00000   0.00000  -0.00001  -0.00001   3.14126
    D6       -1.04753   0.00000   0.00000  -0.00001  -0.00001  -1.04754
    D7       -1.04755   0.00000   0.00000  -0.00001  -0.00001  -1.04756
    D8        1.04685   0.00000   0.00000  -0.00001  -0.00001   1.04685
    D9        3.14124   0.00000   0.00000  -0.00001  -0.00001   3.14123
         Item               Value     Threshold  Converged?
 Maximum Force            0.000182     0.000450     YES
 RMS     Force            0.000038     0.000300     YES
 Maximum Displacement     0.000281     0.001800     YES
 RMS     Displacement     0.000155     0.001200     YES
 Predicted change in Energy=-5.710553D-08
 Optimization completed.
    -- Stationary point found.
                           ----------------------------
                           !   Optimized Parameters   !
                           ! (Angstroms and Degrees)  !
 --------------------------                            --------------------------
 ! Name  Definition              Value          Derivative Info.                !
 --------------------------------------------------------------------------------
 ! R1    R(1,2)                  1.0944         -DE/DX =    0.0                 !
 ! R2    R(1,3)                  1.0944         -DE/DX =    0.0                 !
 ! R3    R(1,4)                  1.0944         -DE/DX =    0.0                 !
 ! R4    R(1,5)                  1.5082         -DE/DX =    0.0002              !
 ! R5    R(5,6)                  1.1106         -DE/DX =    0.0                 !
 ! R6    R(5,7)                  1.1106         -DE/DX =    0.0                 !
 ! R7    R(5,8)                  1.1106         -DE/DX =    0.0                 !
 ! A1    A(2,1,3)              109.0898         -DE/DX =    0.0                 !
 ! A2    A(2,1,4)              109.0907         -DE/DX =    0.0                 !
 ! A3    A(2,1,5)              109.8484         -DE/DX =    0.0                 !
 ! A4    A(3,1,4)              109.0908         -DE/DX =    0.0                 !
 ! A5    A(3,1,5)              109.8492         -DE/DX =    0.0                 !
 ! A6    A(4,1,5)              109.8505         -DE/DX =    0.0                 !
 ! A7    A(1,5,6)              109.853          -DE/DX =    0.0                 !
 ! A8    A(1,5,7)              109.8526         -DE/DX =    0.0                 !
 ! A9    A(1,5,8)              109.8522         -DE/DX =    0.0                 !
 ! A10   A(6,5,7)              109.0875         -DE/DX =    0.0                 !
 ! A11   A(6,5,8)              109.0872         -DE/DX =    0.0                 !
 ! A12   A(7,5,8)              109.0869         -DE/DX =    0.0                 !
 ! D1    D(2,1,5,6)            179.9794         -DE/DX =    0.0                 !
 ! D2    D(2,1,5,7)            -60.0201         -DE/DX =    0.0                 !
 ! D3    D(2,1,5,8)             59.9794         -DE/DX =    0.0                 !
 ! D4    D(3,1,5,6)             59.9809         -DE/DX =    0.0                 !
 ! D5    D(3,1,5,7)            179.9815         -DE/DX =    0.0                 !
 ! D6    D(3,1,5,8)            -60.0191         -DE/DX =    0.0                 !
 ! D7    D(4,1,5,6)            -60.0202         -DE/DX =    0.0                 !
 ! D8    D(4,1,5,7)             59.9803         -DE/DX =    0.0                 !
 ! D9    D(4,1,5,8)            179.9798         -DE/DX =    0.0                 !
 --------------------------------------------------------------------------------
 Lowest energy point so far.  Saving SCF results.
 GradGradGradGradGradGradGradGradGradGradGradGradGradGradGradGradGradGrad

 Largest change from initial coordinates is atom    8       0.036 Angstoms.
 Leave Link  103 at Tue Feb  7 16:33:32 2017, MaxMem=  1048576000 cpu:         0.1
 (Enter /mnt/data/applications/G09/g09/l202.exe)
                          Input orientation:                          
 ---------------------------------------------------------------------
 Center     Atomic      Atomic             Coordinates (Angstroms)
 Number     Number       Type             X           Y           Z
 ---------------------------------------------------------------------
      1          6    10061003        0.449938   -2.948951    0.011276
      2          1    10011000        0.810666   -3.982214    0.005443
      3          1    10011000        0.812030   -2.438346   -0.886473
      4          1    10011000       -0.644467   -2.951845    0.004594
      5          6    10061003        0.952695   -2.237975    1.242738
      6          1    10011000        0.586999   -1.189356    1.248547
      7          1    10011000        0.585019   -2.755871    2.153764
      8          1    10011000        2.063243   -2.235341    1.249731
 ---------------------------------------------------------------------
                    Distance matrix (angstroms):
                    1          2          3          4          5
     1  C    0.000000
     2  H    1.094437   0.000000
     3  H    1.094432   1.782987   0.000000
     4  H    1.094429   1.782995   1.782993   0.000000
     5  C    1.508227   2.143232   2.143239   2.143254   0.000000
     6  H    2.155412   3.065191   2.483732   2.484008   1.110571
     7  H    2.155407   2.483972   3.065190   2.483741   1.110572
     8  H    2.155402   2.483700   2.483971   3.065197   1.110573
                    6          7          8
     6  H    0.000000
     7  H    1.809251   0.000000
     8  H    1.809249   1.809246   0.000000
 Symmetry turned off by external request.
 Stoichiometry    C2H6
 Framework group  C1[X(C2H6)]
 Deg. of freedom    18
 Full point group                 C1      NOp   1
 Rotational constants (GHZ):     77.7155671     20.5431955     20.5431853
 Leave Link  202 at Tue Feb  7 16:33:32 2017, MaxMem=  1048576000 cpu:         0.0
 (Enter /mnt/data/applications/G09/g09/l9999.exe)
 1\1\GINC-KIMIK2113\FOpt\ONIOM(B3LYP/6-31G(d):UFF)\Mixed\C2H6\IFUNES\07
 -Feb-2017\0\\#p opt=nomicro oniom(B3LYP/6-31G*:UFF) geom=connectivity 
 nosymm scf(maxcyc=100)\\ONIOM(QM:MM) OPT FREQ with SICTWO V1.0\\0,1\C,
 0.4499382951,-2.9489509429,0.0112763111\H,0.8106655993,-3.9822142624,0
 .0054426099\H,0.8120296731,-2.438346425,-0.8864726402\H,-0.6444669049,
 -2.95184548,0.0045939664\C,0.9526950467,-2.2379747613,1.2427379861\H,0
 .5869991306,-1.1893558225,1.2485468451\H,0.5850185518,-2.7558709099,2.
 1537636563\H,2.0632425983,-2.2353413062,1.2497307654\\Version=EM64L-G0
 9RevD.01\HF=0.0005342\RMSD=2.642e-09\RMSF=5.715e-05\Dipole=-0.0006865,
 -0.0009806,-0.0016919\PG=C01 [X(C2H6)]\\@


 SOME PEOPLE TRY TO PULL THE WOOL OVER YOUR EYES
 USING THE WRONG YARN.
 Job cpu time:       0 days  0 hours  1 minutes 19.8 seconds.
 File lengths (MBytes):  RWF=      5 Int=      0 D2E=      0 Chk=      2 Scr=      1
 Normal termination of Gaussian 09 at Tue Feb  7 16:33:33 2017.
