 Entering Gaussian System, Link 0=g09
 Initial command:
 /mnt/data/applications/G09/g09/l1.exe "/scratch/Gau-26155.inp" -scrdir="/scratch/"
 Entering Link 1 = /mnt/data/applications/G09/g09/l1.exe PID=     26156.
  
 Copyright (c) 1988,1990,1992,1993,1995,1998,2003,2009,2013,
            Gaussian, Inc.  All Rights Reserved.
  
 This is part of the Gaussian(R) 09 program.  It is based on
 the Gaussian(R) 03 system (copyright 2003, Gaussian, Inc.),
 the Gaussian(R) 98 system (copyright 1998, Gaussian, Inc.),
 the Gaussian(R) 94 system (copyright 1995, Gaussian, Inc.),
 the Gaussian 92(TM) system (copyright 1992, Gaussian, Inc.),
 the Gaussian 90(TM) system (copyright 1990, Gaussian, Inc.),
 the Gaussian 88(TM) system (copyright 1988, Gaussian, Inc.),
 the Gaussian 86(TM) system (copyright 1986, Carnegie Mellon
 University), and the Gaussian 82(TM) system (copyright 1983,
 Carnegie Mellon University). Gaussian is a federally registered
 trademark of Gaussian, Inc.
  
 This software contains proprietary and confidential information,
 including trade secrets, belonging to Gaussian, Inc.
  
 This software is provided under written license and may be
 used, copied, transmitted, or stored only in accord with that
 written license.
  
 The following legend is applicable only to US Government
 contracts under FAR:
  
                    RESTRICTED RIGHTS LEGEND
  
 Use, reproduction and disclosure by the US Government is
 subject to restrictions as set forth in subparagraphs (a)
 and (c) of the Commercial Computer Software - Restricted
 Rights clause in FAR 52.227-19.
  
 Gaussian, Inc.
 340 Quinnipiac St., Bldg. 40, Wallingford CT 06492
  
  
 ---------------------------------------------------------------
 Warning -- This program may not be used in any manner that
 competes with the business of Gaussian, Inc. or will provide
 assistance to any competitor of Gaussian, Inc.  The licensee
 of this program is prohibited from giving any competitor of
 Gaussian, Inc. access to this program.  By using this program,
 the user acknowledges that Gaussian, Inc. is engaged in the
 business of creating and licensing software in the field of
 computational chemistry and represents and warrants to the
 licensee that it is not a competitor of Gaussian, Inc. and that
 it will not use this program in any manner prohibited above.
 ---------------------------------------------------------------
  

 Cite this work as:
 Gaussian 09, Revision D.01,
 M. J. Frisch, G. W. Trucks, H. B. Schlegel, G. E. Scuseria, 
 M. A. Robb, J. R. Cheeseman, G. Scalmani, V. Barone, B. Mennucci, 
 G. A. Petersson, H. Nakatsuji, M. Caricato, X. Li, H. P. Hratchian, 
 A. F. Izmaylov, J. Bloino, G. Zheng, J. L. Sonnenberg, M. Hada, 
 M. Ehara, K. Toyota, R. Fukuda, J. Hasegawa, M. Ishida, T. Nakajima, 
 Y. Honda, O. Kitao, H. Nakai, T. Vreven, J. A. Montgomery, Jr., 
 J. E. Peralta, F. Ogliaro, M. Bearpark, J. J. Heyd, E. Brothers, 
 K. N. Kudin, V. N. Staroverov, T. Keith, R. Kobayashi, J. Normand, 
 K. Raghavachari, A. Rendell, J. C. Burant, S. S. Iyengar, J. Tomasi, 
 M. Cossi, N. Rega, J. M. Millam, M. Klene, J. E. Knox, J. B. Cross, 
 V. Bakken, C. Adamo, J. Jaramillo, R. Gomperts, R. E. Stratmann, 
 O. Yazyev, A. J. Austin, R. Cammi, C. Pomelli, J. W. Ochterski, 
 R. L. Martin, K. Morokuma, V. G. Zakrzewski, G. A. Voth, 
 P. Salvador, J. J. Dannenberg, S. Dapprich, A. D. Daniels, 
 O. Farkas, J. B. Foresman, J. V. Ortiz, J. Cioslowski, 
 and D. J. Fox, Gaussian, Inc., Wallingford CT, 2013.
 
 ******************************************
 Gaussian 09:  EM64L-G09RevD.01 24-Apr-2013
                 7-Feb-2017 
 ******************************************
 %nprocshared=8
 Will use up to    8 processors via shared memory.
 %mem=8000MB
 %chk=C_2
 ----------------------------------------------------------------------
 #p opt=nomicro oniom(B3LYP/6-31G*:external="./sictwo_files/sictwo_g09d
 01") geom=connectivity nosymm scf(maxcyc=100)
 ----------------------------------------------------------------------
 1/14=-1,18=20,19=15,26=1,38=1,52=2,57=2/1,3;
 2/9=110,12=2,15=1,17=6,18=5,40=1/2;
 1/14=-1,18=20,19=15,26=1,38=1,52=2,53=3172/20;
 3/11=9,16=1,25=1,30=1,41=9900000,43=2,71=1/1;
 4/20=17,22=1,23=100,24=3,113=1,114=1/2;
 6/7=2,8=2,9=2,10=2/1;
 7/7=1,30=1,33=-1,44=-1/16;
 1/14=-1,18=20,19=15,26=1,52=2,53=2032/20;
 3/5=1,6=6,7=1,11=2,16=1,25=1,30=1,71=1,74=-5/1,2,3;
 4//1;
 5/5=2,7=100,38=5/2;
 6/7=2,8=2,9=2,10=2,28=1/1;
 7/7=1,30=1,33=-1/1,2,3,16;
 1/14=-1,18=20,19=15,26=1,52=2,53=1022/20;
 3/11=9,16=1,25=1,30=1,41=9900000,43=2,71=1/1;
 4/20=17,22=1,23=100,24=3,113=1,114=2/2;
 6/7=2,8=2,9=2,10=2/1;
 7/7=1,30=1,33=-1,44=-1/16;
 1/14=-1,18=20,19=15,26=1,52=2,53=3015/20;
 7/9=1,44=-1/16;
 1/14=-1,18=20,19=15,26=1,52=2/3(2);
 2/9=110,15=1/2;
 99//99;
 2/9=110,15=1/2;
 1/14=-1,18=20,19=15,26=1,52=2,53=3173/20;
 3/11=9,16=1,25=1,30=1,41=9900000,43=2,71=1/1;
 4/16=2,20=17,22=1,23=100,24=3,113=1,114=1/2;
 7/7=1,30=1,33=-1,44=-1/16;
 1/14=-1,18=20,19=15,26=1,52=2,53=2033/20;
 3/5=1,6=6,7=1,11=2,16=1,25=1,30=1,71=1,74=-5/1,2,3;
 4/5=5,16=3,69=1/1;
 5/5=2,7=100,38=5/2;
 7/7=1,30=1,33=-1/1,2,3,16;
 1/14=-1,18=20,19=15,26=1,52=2,53=1023/20;
 3/11=9,16=1,25=1,30=1,41=9900000,43=2,71=1/1;
 4/16=2,20=17,22=1,23=100,24=3,113=1,114=2/2;
 7/7=1,30=1,33=-1,44=-1/16;
 1/14=-1,18=20,19=15,26=1,52=2,53=3015/20;
 7/9=1,44=-1/16;
 1/14=-1,18=20,19=15,26=1,52=2/3(-16);
 2/9=110,15=1/2;
 99//99;
 Leave Link    1 at Tue Feb  7 16:26:51 2017, MaxMem=  1048576000 cpu:         0.5
 (Enter /mnt/data/applications/G09/g09/l101.exe)
 --------------------------------------
 ONIOM(QM:MM) OPT FREQ with SICTWO V1.0
 --------------------------------------
 Symbolic Z-matrix:
 Charge =  0 Multiplicity = 1 for low   level calculation on real  system.
 Charge =  0 Multiplicity = 1 for high  level calculation on model system.
 Charge =  0 Multiplicity = 1 for low   level calculation on model system.
 C-C_2                0    -2.36842   0.38462   0.       H 
 O-O_2                0    -1.74138   1.46353   0.16231  H 
 C-C_3                0    -3.90842   0.38462   0.       H 
 H-H_                 0    -4.26509   0.88902  -0.87365  H 
 H-H_                 0    -4.26509  -0.62419   0.       H 
 H-H_                 0    -4.26509   0.88902   0.87365  H 
 C-C_3                0    -1.60106  -0.93573  -0.19863  H 
 H-H_                 0    -1.80801  -1.59492   0.61841  H 
 H-H_                 0    -1.91129  -1.39428  -1.11426  H 
 C-C_3                0    -0.08937  -0.64736  -0.25533  L    H-H_     7     0.        0. 
 H-H_                 0     0.44232  -1.56169  -0.41725  L 
 H-H_                 0     0.11454   0.03067  -1.05758  L 
 H-H_                 0     0.22537  -0.21071   0.66942  L 
 
 NAtoms=     13 NQM=       13 NQMF=       0 NMMI=      0 NMMIF=      0
                NMic=       0 NMicF=      0.
                    Isotopes and Nuclear Properties:
 (Nuclear quadrupole moments (NQMom) in fm**2, nuclear magnetic moments (NMagM)
  in nuclear magnetons)

  Atom         1           2           3           4           5           6           7           8           9          10
 IAtWgt=          12          16          12           1           1           1          12           1           1          12
 AtmWgt=  12.0000000  15.9949146  12.0000000   1.0078250   1.0078250   1.0078250  12.0000000   1.0078250   1.0078250  12.0000000
 NucSpn=           0           0           0           1           1           1           0           1           1           0
 AtZEff=   0.0000000   0.0000000   0.0000000   0.0000000   0.0000000   0.0000000   0.0000000   0.0000000   0.0000000   0.0000000
 NQMom=    0.0000000   0.0000000   0.0000000   0.0000000   0.0000000   0.0000000   0.0000000   0.0000000   0.0000000   0.0000000
 NMagM=    0.0000000   0.0000000   0.0000000   2.7928460   2.7928460   2.7928460   0.0000000   2.7928460   2.7928460   0.0000000
 AtZNuc=   6.0000000   8.0000000   6.0000000   1.0000000   1.0000000   1.0000000   6.0000000   1.0000000   1.0000000   6.0000000

  Atom        11          12          13
 IAtWgt=           1           1           1
 AtmWgt=   1.0078250   1.0078250   1.0078250
 NucSpn=           1           1           1
 AtZEff=   0.0000000   0.0000000   0.0000000
 NQMom=    0.0000000   0.0000000   0.0000000
 NMagM=    2.7928460   2.7928460   2.7928460
 AtZNuc=   1.0000000   1.0000000   1.0000000
 Leave Link  101 at Tue Feb  7 16:26:52 2017, MaxMem=  1048576000 cpu:         2.8
 (Enter /mnt/data/applications/G09/g09/l103.exe)

 GradGradGradGradGradGradGradGradGradGradGradGradGradGradGradGradGradGrad
 Berny optimization.
 Initialization pass.
                           ----------------------------
                           !    Initial Parameters    !
                           ! (Angstroms and Degrees)  !
 --------------------------                            --------------------------
 ! Name  Definition              Value          Derivative Info.                !
 --------------------------------------------------------------------------------
 ! R1    R(1,2)                  1.2584         estimate D2E/DX2                !
 ! R2    R(1,3)                  1.54           estimate D2E/DX2                !
 ! R3    R(1,7)                  1.54           estimate D2E/DX2                !
 ! R4    R(3,4)                  1.07           estimate D2E/DX2                !
 ! R5    R(3,5)                  1.07           estimate D2E/DX2                !
 ! R6    R(3,6)                  1.07           estimate D2E/DX2                !
 ! R7    R(7,8)                  1.07           estimate D2E/DX2                !
 ! R8    R(7,9)                  1.07           estimate D2E/DX2                !
 ! R9    R(7,10)                 1.54           estimate D2E/DX2                !
 ! R10   R(10,11)                1.07           estimate D2E/DX2                !
 ! R11   R(10,12)                1.07           estimate D2E/DX2                !
 ! R12   R(10,13)                1.07           estimate D2E/DX2                !
 ! A1    A(2,1,3)              119.8865         estimate D2E/DX2                !
 ! A2    A(2,1,7)              120.2269         estimate D2E/DX2                !
 ! A3    A(3,1,7)              119.8865         estimate D2E/DX2                !
 ! A4    A(1,3,4)              109.4712         estimate D2E/DX2                !
 ! A5    A(1,3,5)              109.4712         estimate D2E/DX2                !
 ! A6    A(1,3,6)              109.4712         estimate D2E/DX2                !
 ! A7    A(4,3,5)              109.4713         estimate D2E/DX2                !
 ! A8    A(4,3,6)              109.4712         estimate D2E/DX2                !
 ! A9    A(5,3,6)              109.4712         estimate D2E/DX2                !
 ! A10   A(1,7,8)              109.4712         estimate D2E/DX2                !
 ! A11   A(1,7,9)              109.4712         estimate D2E/DX2                !
 ! A12   A(1,7,10)             109.4712         estimate D2E/DX2                !
 ! A13   A(8,7,9)              109.4713         estimate D2E/DX2                !
 ! A14   A(8,7,10)             109.4712         estimate D2E/DX2                !
 ! A15   A(9,7,10)             109.4712         estimate D2E/DX2                !
 ! A16   A(7,10,11)            109.4712         estimate D2E/DX2                !
 ! A17   A(7,10,12)            109.4712         estimate D2E/DX2                !
 ! A18   A(7,10,13)            109.4712         estimate D2E/DX2                !
 ! A19   A(11,10,12)           109.4713         estimate D2E/DX2                !
 ! A20   A(11,10,13)           109.4712         estimate D2E/DX2                !
 ! A21   A(12,10,13)           109.4712         estimate D2E/DX2                !
 ! D1    D(2,1,3,4)             68.5551         estimate D2E/DX2                !
 ! D2    D(2,1,3,5)           -171.4449         estimate D2E/DX2                !
 ! D3    D(2,1,3,6)            -51.4449         estimate D2E/DX2                !
 ! D4    D(7,1,3,4)           -111.4449         estimate D2E/DX2                !
 ! D5    D(7,1,3,5)              8.5551         estimate D2E/DX2                !
 ! D6    D(7,1,3,6)            128.5551         estimate D2E/DX2                !
 ! D7    D(2,1,7,8)            116.0912         estimate D2E/DX2                !
 ! D8    D(2,1,7,9)           -123.9088         estimate D2E/DX2                !
 ! D9    D(2,1,7,10)            -3.9088         estimate D2E/DX2                !
 ! D10   D(3,1,7,8)            -63.9088         estimate D2E/DX2                !
 ! D11   D(3,1,7,9)             56.0912         estimate D2E/DX2                !
 ! D12   D(3,1,7,10)           176.0912         estimate D2E/DX2                !
 ! D13   D(1,7,10,11)         -178.6284         estimate D2E/DX2                !
 ! D14   D(1,7,10,12)          -58.6284         estimate D2E/DX2                !
 ! D15   D(1,7,10,13)           61.3716         estimate D2E/DX2                !
 ! D16   D(8,7,10,11)           61.3716         estimate D2E/DX2                !
 ! D17   D(8,7,10,12)         -178.6284         estimate D2E/DX2                !
 ! D18   D(8,7,10,13)          -58.6284         estimate D2E/DX2                !
 ! D19   D(9,7,10,11)          -58.6285         estimate D2E/DX2                !
 ! D20   D(9,7,10,12)           61.3716         estimate D2E/DX2                !
 ! D21   D(9,7,10,13)         -178.6284         estimate D2E/DX2                !
 --------------------------------------------------------------------------------
 Trust Radius=3.00D-01 FncErr=1.00D-07 GrdErr=1.00D-07
 Number of steps in this run=     64 maximum allowed number of steps=    100.
 GradGradGradGradGradGradGradGradGradGradGradGradGradGradGradGradGradGrad

 Leave Link  103 at Tue Feb  7 16:26:52 2017, MaxMem=  1048576000 cpu:         0.1
 (Enter /mnt/data/applications/G09/g09/l202.exe)
                          Input orientation:                          
 ---------------------------------------------------------------------
 Center     Atomic      Atomic             Coordinates (Angstroms)
 Number     Number       Type             X           Y           Z
 ---------------------------------------------------------------------
      1          6    10061002       -2.368421    0.384615    0.000000
      2          8    10081002       -1.741381    1.463526    0.162305
      3          6    10061003       -3.908421    0.384615    0.000000
      4          1    10011000       -4.265087    0.889018   -0.873651
      5          1    10011000       -4.265087   -0.624190    0.000000
      6          1    10011000       -4.265088    0.889018    0.873651
      7          6    10061003       -1.601064   -0.935730   -0.198625
      8          1    10011000       -1.808014   -1.594917    0.618408
      9          1    10011000       -1.911285   -1.394283   -1.114263
     10          6    10061003       -0.089366   -0.647364   -0.255334
     11          1    10011000        0.442317   -1.561692   -0.417249
     12          1    10011000        0.114544    0.030668   -1.057576
     13          1    10011000        0.225375   -0.210711    0.669421
 ---------------------------------------------------------------------
                    Distance matrix (angstroms):
                    1          2          3          4          5
     1  C    0.000000
     2  O    1.258400   0.000000
     3  C    1.540000   2.426202   0.000000
     4  H    2.148263   2.787895   1.070000   0.000000
     5  H    2.148263   3.279329   1.070000   1.747303   0.000000
     6  H    2.148263   2.684245   1.070000   1.747303   1.747303
     7  C    1.540000   2.430306   2.665832   3.298846   2.689522
     8  H    2.148263   3.092983   2.951726   3.799129   2.713291
     9  H    2.148263   3.134575   2.897346   3.288121   2.715697
    10  C    2.514810   2.712827   3.964260   4.492152   4.183584
    11  H    3.444192   3.775760   4.784468   5.326720   4.817952
    12  H    2.721922   2.643037   4.174685   4.466740   4.552854
    13  H    2.744142   2.632178   4.229752   4.873882   4.558875
                    6          7          8          9         10
     6  H    0.000000
     7  C    3.402426   0.000000
     8  H    3.503183   1.070000   0.000000
     9  H    3.834795   1.070000   1.747303   0.000000
    10  C    4.590395   1.540000   2.148263   2.148263   0.000000
    11  H    5.461874   2.148263   2.477435   2.460345   1.070000
    12  H    4.862878   2.148263   3.024514   2.477434   1.070000
    13  H    4.627674   2.148263   2.460345   3.024514   1.070000
                   11         12         13
    11  H    0.000000
    12  H    1.747303   0.000000
    13  H    1.747303   1.747303   0.000000
 Symmetry turned off by external request.
 Stoichiometry    C4H8O
 Framework group  C1[X(C4H8O)]
 Deg. of freedom    33
 Full point group                 C1      NOp   1
 Rotational constants (GHZ):      9.5283933      3.5635474      2.7240272
 Leave Link  202 at Tue Feb  7 16:26:52 2017, MaxMem=  1048576000 cpu:         0.0
 (Enter /mnt/data/applications/G09/g09/l120.exe)
 ONIOM: Cut between C /H    10 and C     7 factor= 0.723886 0.723886
 ONIOM: saving gridpoint 17
 ONIOM: generating point  3 -- low level on real system.
 Leave Link  120 at Tue Feb  7 16:26:52 2017, MaxMem=  1048576000 cpu:         0.0
 (Enter /mnt/data/applications/G09/g09/l301.exe)
 Standard basis: STO-3G (5D, 7F)
 Ernie: Thresh=  0.10000D-02 Tol=  0.10000D-05 Strict=F.
    33 basis functions,    99 primitive gaussians,    33 cartesian basis functions
    20 alpha electrons       20 beta electrons
       nuclear repulsion energy       175.1826591211 Hartrees.
 IExCor=    0 DFT=F Ex=HF Corr=None ExCW=0 ScaHFX=  1.000000
 ScaDFX=  1.000000  1.000000  1.000000  1.000000 ScalE2=  1.000000  1.000000
 IRadAn=      0 IRanWt=     -1 IRanGd=            0 ICorTp=0 IEmpDi=  4
 NAtoms=   13 NActive=   13 NUniq=   13 SFac= 1.00D+00 NAtFMM=   60 NAOKFM=F Big=F
 Integral buffers will be    131072 words long.
 Raffenetti 1 integral format.
 Two-electron integral symmetry is turned off.
 Leave Link  301 at Tue Feb  7 16:26:52 2017, MaxMem=  1048576000 cpu:         0.5
 (Enter /mnt/data/applications/G09/g09/l402.exe)
 External calculation of energy and first derivatives.
 Running external command "./sictwo_files/sictwo_g09d01 R"
         input file       "/scratch/Gau-26156.EIn"
         output file      "/scratch/Gau-26156.EOu"
         message file     "/scratch/Gau-26156.EMs"
         fchk file        "/scratch/Gau-26156.EFC"
         mat. el file     "/scratch/Gau-26156.EUF"

---------------------------- SICTWO Version 1.0 STARTED -----------------------------

MM calculations started
MM calculations finished ....
Information recovery

---------------------------- SICTWO Version 1.0 FINISHED -----------------------------

 Recovered energy= 0.808529403360E-02 dipole=     -0.764435156449     -1.314450775963     -0.197895462529
 Energy=    8.085294034E-03 NIter=   0.
 Dipole moment=      -0.764435      -1.314451      -0.197895
 Leave Link  402 at Tue Feb  7 16:26:56 2017, MaxMem=  1048576000 cpu:        21.2
 (Enter /mnt/data/applications/G09/g09/l601.exe)
 Leave Link  601 at Tue Feb  7 16:26:56 2017, MaxMem=  1048576000 cpu:         0.2
 (Enter /mnt/data/applications/G09/g09/l716.exe)
 Dipole        =-7.64435156D-01-1.31445078D+00-1.97895463D-01
 Cartesian Forces:  Max     0.029596183 RMS     0.012288636
 Leave Link  716 at Tue Feb  7 16:26:56 2017, MaxMem=  1048576000 cpu:         0.2
 (Enter /mnt/data/applications/G09/g09/l120.exe)
 SvSCFP did not find density file   528.
 ONIOM: saving gridpoint  3
 ONIOM: restoring gridpoint 17
 ONIOM: generating point  2 -- high level on model system.
 Leave Link  120 at Tue Feb  7 16:26:56 2017, MaxMem=  1048576000 cpu:         0.0
 (Enter /mnt/data/applications/G09/g09/l301.exe)
 Standard basis: 6-31G(d) (6D, 7F)
 Ernie: Thresh=  0.10000D-02 Tol=  0.10000D-05 Strict=F.
    72 basis functions,   136 primitive gaussians,    72 cartesian basis functions
    16 alpha electrons       16 beta electrons
       nuclear repulsion energy       117.6008444183 Hartrees.
 IExCor=  402 DFT=T Ex+Corr=B3LYP ExCW=0 ScaHFX=  0.200000
 ScaDFX=  0.800000  0.720000  1.000000  0.810000 ScalE2=  1.000000  1.000000
 IRadAn=      0 IRanWt=     -1 IRanGd=            0 ICorTp=0 IEmpDi=  4
 NAtoms=   13 NActive=   10 NUniq=   10 SFac= 1.00D+00 NAtFMM=   60 NAOKFM=F Big=F
 Integral buffers will be    131072 words long.
 Raffenetti 2 integral format.
 Two-electron integral symmetry is turned off.
 Leave Link  301 at Tue Feb  7 16:26:56 2017, MaxMem=  1048576000 cpu:         0.3
 (Enter /mnt/data/applications/G09/g09/l302.exe)
 NPDir=0 NMtPBC=     1 NCelOv=     1 NCel=       1 NClECP=     1 NCelD=      1
         NCelK=      1 NCelE2=     1 NClLst=     1 CellRange=     0.0.
 One-electron integrals computed using PRISM.
 NBasis=    72 RedAO= T EigKep=  5.47D-03  NBF=    72
 NBsUse=    72 1.00D-06 EigRej= -1.00D+00 NBFU=    72
 Precomputing XC quadrature grid using
 IXCGrd= 4 IRadAn=           0 IRanWt=          -1 IRanGd=           0 AccXCQ= 0.00D+00.
 Generated NRdTot=       0 NPtTot=           0 NUsed=           0 NTot=          32
 NSgBfM=    72    72    72    72    72 MxSgAt=    10 MxSgA2=    10.
 Leave Link  302 at Tue Feb  7 16:26:56 2017, MaxMem=  1048576000 cpu:         1.5
 (Enter /mnt/data/applications/G09/g09/l303.exe)
 DipDrv:  MaxL=1.
 Leave Link  303 at Tue Feb  7 16:26:57 2017, MaxMem=  1048576000 cpu:         0.3
 (Enter /mnt/data/applications/G09/g09/l401.exe)
 ExpMin= 1.61D-01 ExpMax= 5.48D+03 ExpMxC= 8.25D+02 IAcc=1 IRadAn=         1 AccDes= 0.00D+00
 Harris functional with IExCor=  402 and IRadAn=       1 diagonalized for initial guess.
 HarFok:  IExCor=  402 AccDes= 0.00D+00 IRadAn=         1 IDoV= 1 UseB2=F ITyADJ=14
 ICtDFT=  3500011 ScaDFX=  1.000000  1.000000  1.000000  1.000000
 FoFCou: FMM=F IPFlag=           0 FMFlag=      100000 FMFlg1=           0
         NFxFlg=           0 DoJE=T BraDBF=F KetDBF=T FulRan=T
         wScrn=  0.000000 ICntrl=     500 IOpCl=  0 I1Cent=   200000004 NGrid=           0
         NMat0=    1 NMatS0=      1 NMatT0=    0 NMatD0=    1 NMtDS0=    0 NMtDT0=    0
 Symmetry not used in FoFCou.
 Harris En= -193.203402208356    
 JPrj=0 DoOrth=F DoCkMO=F.
 Leave Link  401 at Tue Feb  7 16:26:57 2017, MaxMem=  1048576000 cpu:         1.7
 (Enter /mnt/data/applications/G09/g09/l502.exe)
 Closed shell SCF:
 Using DIIS extrapolation, IDIIS=  1040.
 Two-electron integral symmetry not used.
 Keep R1 ints in memory in canonical form, NReq=4377290.
 IVT=       28612 IEndB=       28612 NGot=  1048576000 MDV=  1045092883
 LenX=  1045092883 LenY=  1045087258
 Requested convergence on RMS density matrix=1.00D-08 within 100 cycles.
 Requested convergence on MAX density matrix=1.00D-06.
 Requested convergence on             energy=1.00D-06.
 No special actions if energy rises.
 FoFCou: FMM=F IPFlag=           0 FMFlag=           0 FMFlg1=           0
         NFxFlg=           0 DoJE=F BraDBF=F KetDBF=F FulRan=T
         wScrn=  0.000000 ICntrl=     600 IOpCl=  0 I1Cent=           0 NGrid=           0
         NMat0=    1 NMatS0=   2628 NMatT0=    0 NMatD0=    1 NMtDS0=    0 NMtDT0=    0
 Symmetry not used in FoFCou.
 Integral accuracy reduced to 1.0D-05 until final iterations.

 Cycle   1  Pass 0  IDiag  1:
 E= -192.978098666128    
 DIIS: error= 5.70D-02 at cycle   1 NSaved=   1.
 NSaved= 1 IEnMin= 1 EnMin= -192.978098666128     IErMin= 1 ErrMin= 5.70D-02
 ErrMax= 5.70D-02  0.00D+00 EMaxC= 1.00D-01 BMatC= 1.83D-01 BMatP= 1.83D-01
 IDIUse=3 WtCom= 4.30D-01 WtEn= 5.70D-01
 Coeff-Com:  0.100D+01
 Coeff-En:   0.100D+01
 Coeff:      0.100D+01
 Gap=     0.109 Goal=   None    Shift=    0.000
 GapD=    0.109 DampG=1.000 DampE=0.500 DampFc=0.5000 IDamp=-1.
 Damping current iteration by 5.00D-01
 RMSDP=1.32D-02 MaxDP=2.05D-01              OVMax= 3.20D-01

 Cycle   2  Pass 0  IDiag  1:
 E= -193.031420915875     Delta-E=       -0.053322249747 Rises=F Damp=T
 DIIS: error= 1.92D-02 at cycle   2 NSaved=   2.
 NSaved= 2 IEnMin= 2 EnMin= -193.031420915875     IErMin= 2 ErrMin= 1.92D-02
 ErrMax= 1.92D-02  0.00D+00 EMaxC= 1.00D-01 BMatC= 2.71D-02 BMatP= 1.83D-01
 IDIUse=3 WtCom= 8.08D-01 WtEn= 1.92D-01
 Coeff-Com:  0.215D+00 0.785D+00
 Coeff-En:   0.310D+00 0.690D+00
 Coeff:      0.233D+00 0.767D+00
 Gap=     0.217 Goal=   None    Shift=    0.000
 RMSDP=3.96D-03 MaxDP=6.02D-02 DE=-5.33D-02 OVMax= 2.66D-01

 Cycle   3  Pass 0  IDiag  1:
 E= -193.120657923281     Delta-E=       -0.089237007406 Rises=F Damp=F
 DIIS: error= 2.42D-02 at cycle   3 NSaved=   3.
 NSaved= 3 IEnMin= 3 EnMin= -193.120657923281     IErMin= 2 ErrMin= 1.92D-02
 ErrMax= 2.42D-02  0.00D+00 EMaxC= 1.00D-01 BMatC= 3.13D-02 BMatP= 2.71D-02
 IDIUse=2 WtCom= 0.00D+00 WtEn= 1.00D+00
 Coeff-En:   0.000D+00 0.000D+00 0.100D+01
 Coeff:      0.000D+00 0.000D+00 0.100D+01
 Gap=     0.189 Goal=   None    Shift=    0.000
 RMSDP=6.53D-03 MaxDP=1.24D-01 DE=-8.92D-02 OVMax= 2.35D-01

 Cycle   4  Pass 0  IDiag  1:
 E= -193.003261914616     Delta-E=        0.117396008665 Rises=F Damp=F
 DIIS: error= 5.85D-02 at cycle   4 NSaved=   4.
 NSaved= 4 IEnMin= 3 EnMin= -193.120657923281     IErMin= 2 ErrMin= 1.92D-02
 ErrMax= 5.85D-02  0.00D+00 EMaxC= 1.00D-01 BMatC= 1.79D-01 BMatP= 2.71D-02
 IDIUse=2 WtCom= 0.00D+00 WtEn= 1.00D+00
 Coeff-En:   0.000D+00 0.000D+00 0.787D+00 0.213D+00
 Coeff:      0.000D+00 0.000D+00 0.787D+00 0.213D+00
 Gap=     0.207 Goal=   None    Shift=    0.000
 RMSDP=3.70D-03 MaxDP=6.90D-02 DE= 1.17D-01 OVMax= 1.31D-01

 Cycle   5  Pass 0  IDiag  1:
 E= -193.139105707507     Delta-E=       -0.135843792891 Rises=F Damp=F
 DIIS: error= 1.38D-02 at cycle   5 NSaved=   5.
 NSaved= 5 IEnMin= 5 EnMin= -193.139105707507     IErMin= 5 ErrMin= 1.38D-02
 ErrMax= 1.38D-02  0.00D+00 EMaxC= 1.00D-01 BMatC= 1.09D-02 BMatP= 2.71D-02
 IDIUse=3 WtCom= 8.62D-01 WtEn= 1.38D-01
 Coeff-Com: -0.173D-01 0.539D-01 0.276D+00-0.100D+00 0.788D+00
 Coeff-En:   0.000D+00 0.000D+00 0.298D+00 0.000D+00 0.702D+00
 Coeff:     -0.149D-01 0.465D-01 0.279D+00-0.867D-01 0.776D+00
 Gap=     0.221 Goal=   None    Shift=    0.000
 RMSDP=1.17D-03 MaxDP=2.07D-02 DE=-1.36D-01 OVMax= 3.79D-02

 Cycle   6  Pass 0  IDiag  1:
 E= -193.148471130829     Delta-E=       -0.009365423322 Rises=F Damp=F
 DIIS: error= 6.12D-04 at cycle   6 NSaved=   6.
 NSaved= 6 IEnMin= 6 EnMin= -193.148471130829     IErMin= 6 ErrMin= 6.12D-04
 ErrMax= 6.12D-04  0.00D+00 EMaxC= 1.00D-01 BMatC= 2.39D-05 BMatP= 1.09D-02
 IDIUse=3 WtCom= 9.94D-01 WtEn= 6.12D-03
 Coeff-Com: -0.671D-02 0.131D-01 0.785D-01-0.306D-01 0.264D+00 0.682D+00
 Coeff-En:   0.000D+00 0.000D+00 0.000D+00 0.000D+00 0.000D+00 0.100D+01
 Coeff:     -0.666D-02 0.131D-01 0.781D-01-0.304D-01 0.262D+00 0.684D+00
 Gap=     0.221 Goal=   None    Shift=    0.000
 RMSDP=6.23D-05 MaxDP=1.28D-03 DE=-9.37D-03 OVMax= 1.99D-03

 Cycle   7  Pass 0  IDiag  1:
 E= -193.148489550874     Delta-E=       -0.000018420045 Rises=F Damp=F
 DIIS: error= 1.02D-04 at cycle   7 NSaved=   7.
 NSaved= 7 IEnMin= 7 EnMin= -193.148489550874     IErMin= 7 ErrMin= 1.02D-04
 ErrMax= 1.02D-04  0.00D+00 EMaxC= 1.00D-01 BMatC= 6.83D-07 BMatP= 2.39D-05
 IDIUse=3 WtCom= 9.99D-01 WtEn= 1.02D-03
 Coeff-Com: -0.179D-02 0.271D-02 0.165D-01-0.815D-02 0.671D-01 0.319D+00
 Coeff-Com:  0.604D+00
 Coeff-En:   0.000D+00 0.000D+00 0.000D+00 0.000D+00 0.000D+00 0.000D+00
 Coeff-En:   0.100D+01
 Coeff:     -0.179D-02 0.271D-02 0.165D-01-0.814D-02 0.670D-01 0.319D+00
 Coeff:      0.605D+00
 Gap=     0.221 Goal=   None    Shift=    0.000
 RMSDP=1.45D-05 MaxDP=1.65D-04 DE=-1.84D-05 OVMax= 2.40D-04

 Cycle   8  Pass 0  IDiag  1:
 E= -193.148490156366     Delta-E=       -0.000000605493 Rises=F Damp=F
 DIIS: error= 9.54D-06 at cycle   8 NSaved=   8.
 NSaved= 8 IEnMin= 8 EnMin= -193.148490156366     IErMin= 8 ErrMin= 9.54D-06
 ErrMax= 9.54D-06  0.00D+00 EMaxC= 1.00D-01 BMatC= 7.78D-09 BMatP= 6.83D-07
 IDIUse=1 WtCom= 1.00D+00 WtEn= 0.00D+00
 Coeff-Com: -0.723D-05-0.117D-03 0.125D-03-0.355D-03 0.182D-02 0.223D-01
 Coeff-Com:  0.668D-01 0.909D+00
 Coeff:     -0.723D-05-0.117D-03 0.125D-03-0.355D-03 0.182D-02 0.223D-01
 Coeff:      0.668D-01 0.909D+00
 Gap=     0.221 Goal=   None    Shift=    0.000
 RMSDP=1.24D-06 MaxDP=1.59D-05 DE=-6.05D-07 OVMax= 2.01D-05

 Initial convergence to 1.0D-05 achieved.  Increase integral accuracy.
 Cycle   9  Pass 1  IDiag  1:
 E= -193.148481242179     Delta-E=        0.000008914188 Rises=F Damp=F
 DIIS: error= 4.74D-06 at cycle   1 NSaved=   1.
 NSaved= 1 IEnMin= 1 EnMin= -193.148481242179     IErMin= 1 ErrMin= 4.74D-06
 ErrMax= 4.74D-06  0.00D+00 EMaxC= 1.00D-01 BMatC= 4.24D-09 BMatP= 4.24D-09
 IDIUse=1 WtCom= 1.00D+00 WtEn= 0.00D+00
 Coeff-Com:  0.100D+01
 Coeff:      0.100D+01
 Gap=     0.221 Goal=   None    Shift=    0.000
 RMSDP=1.24D-06 MaxDP=1.59D-05 DE= 8.91D-06 OVMax= 2.31D-05

 Cycle  10  Pass 1  IDiag  1:
 E= -193.148481247066     Delta-E=       -0.000000004887 Rises=F Damp=F
 DIIS: error= 4.01D-06 at cycle   2 NSaved=   2.
 NSaved= 2 IEnMin= 2 EnMin= -193.148481247066     IErMin= 2 ErrMin= 4.01D-06
 ErrMax= 4.01D-06  0.00D+00 EMaxC= 1.00D-01 BMatC= 9.96D-10 BMatP= 4.24D-09
 IDIUse=1 WtCom= 1.00D+00 WtEn= 0.00D+00
 Coeff-Com:  0.217D+00 0.783D+00
 Coeff:      0.217D+00 0.783D+00
 Gap=     0.221 Goal=   None    Shift=    0.000
 RMSDP=9.51D-07 MaxDP=1.94D-05 DE=-4.89D-09 OVMax= 3.23D-05

 Cycle  11  Pass 1  IDiag  1:
 E= -193.148481246066     Delta-E=        0.000000001000 Rises=F Damp=F
 DIIS: error= 6.91D-06 at cycle   3 NSaved=   3.
 NSaved= 3 IEnMin= 2 EnMin= -193.148481247066     IErMin= 2 ErrMin= 4.01D-06
 ErrMax= 6.91D-06  0.00D+00 EMaxC= 1.00D-01 BMatC= 2.38D-09 BMatP= 9.96D-10
 IDIUse=1 WtCom= 1.00D+00 WtEn= 0.00D+00
 Coeff-Com: -0.275D-02 0.611D+00 0.391D+00
 Coeff:     -0.275D-02 0.611D+00 0.391D+00
 Gap=     0.221 Goal=   None    Shift=    0.000
 RMSDP=5.28D-07 MaxDP=1.20D-05 DE= 1.00D-09 OVMax= 1.98D-05

 Cycle  12  Pass 1  IDiag  1:
 E= -193.148481247882     Delta-E=       -0.000000001816 Rises=F Damp=F
 DIIS: error= 4.94D-07 at cycle   4 NSaved=   4.
 NSaved= 4 IEnMin= 4 EnMin= -193.148481247882     IErMin= 4 ErrMin= 4.94D-07
 ErrMax= 4.94D-07  0.00D+00 EMaxC= 1.00D-01 BMatC= 2.67D-11 BMatP= 9.96D-10
 IDIUse=1 WtCom= 1.00D+00 WtEn= 0.00D+00
 Coeff-Com: -0.153D-01 0.269D+00 0.188D+00 0.558D+00
 Coeff:     -0.153D-01 0.269D+00 0.188D+00 0.558D+00
 Gap=     0.221 Goal=   None    Shift=    0.000
 RMSDP=7.85D-08 MaxDP=1.34D-06 DE=-1.82D-09 OVMax= 1.33D-06

 Cycle  13  Pass 1  IDiag  1:
 E= -193.148481247906     Delta-E=       -0.000000000024 Rises=F Damp=F
 DIIS: error= 1.09D-07 at cycle   5 NSaved=   5.
 NSaved= 5 IEnMin= 5 EnMin= -193.148481247906     IErMin= 5 ErrMin= 1.09D-07
 ErrMax= 1.09D-07  0.00D+00 EMaxC= 1.00D-01 BMatC= 1.25D-12 BMatP= 2.67D-11
 IDIUse=1 WtCom= 1.00D+00 WtEn= 0.00D+00
 Coeff-Com: -0.530D-02 0.793D-01 0.507D-01 0.237D+00 0.639D+00
 Coeff:     -0.530D-02 0.793D-01 0.507D-01 0.237D+00 0.639D+00
 Gap=     0.221 Goal=   None    Shift=    0.000
 RMSDP=1.70D-08 MaxDP=2.16D-07 DE=-2.41D-11 OVMax= 2.59D-07

 Cycle  14  Pass 1  IDiag  1:
 E= -193.148481247906     Delta-E=        0.000000000000 Rises=F Damp=F
 DIIS: error= 1.71D-08 at cycle   6 NSaved=   6.
 NSaved= 6 IEnMin= 6 EnMin= -193.148481247906     IErMin= 6 ErrMin= 1.71D-08
 ErrMax= 1.71D-08  0.00D+00 EMaxC= 1.00D-01 BMatC= 3.86D-14 BMatP= 1.25D-12
 IDIUse=1 WtCom= 1.00D+00 WtEn= 0.00D+00
 Coeff-Com: -0.634D-03 0.659D-02 0.196D-02 0.390D-01 0.193D+00 0.760D+00
 Coeff:     -0.634D-03 0.659D-02 0.196D-02 0.390D-01 0.193D+00 0.760D+00
 Gap=     0.221 Goal=   None    Shift=    0.000
 RMSDP=3.43D-09 MaxDP=5.36D-08 DE=-2.84D-13 OVMax= 5.46D-08

 SCF Done:  E(RB3LYP) =  -193.148481248     A.U. after   14 cycles
            NFock= 14  Conv=0.34D-08     -V/T= 2.0097
 KE= 1.912863568993D+02 PE=-6.851792672449D+02 EE= 1.831435846793D+02
 Leave Link  502 at Tue Feb  7 16:26:59 2017, MaxMem=  1048576000 cpu:        12.5
 (Enter /mnt/data/applications/G09/g09/l601.exe)
 Copying SCF densities to generalized density rwf, IOpCl= 0 IROHF=0.

 **********************************************************************

            Population analysis using the SCF density.

 **********************************************************************

 Alpha  occ. eigenvalues --  -19.13287 -10.28256 -10.19176 -10.18842  -1.00989
 Alpha  occ. eigenvalues --   -0.76524  -0.71546  -0.53199  -0.45836  -0.44958
 Alpha  occ. eigenvalues --   -0.44702  -0.41851  -0.38584  -0.38011  -0.33403
 Alpha  occ. eigenvalues --   -0.24116
 Alpha virt. eigenvalues --   -0.02021   0.09558   0.14278   0.15121   0.15356
 Alpha virt. eigenvalues --    0.15632   0.19389   0.19868   0.27757   0.31348
 Alpha virt. eigenvalues --    0.49364   0.52817   0.56084   0.57776   0.60176
 Alpha virt. eigenvalues --    0.65888   0.66704   0.68214   0.73945   0.81903
 Alpha virt. eigenvalues --    0.86702   0.87617   0.89689   0.90246   0.92929
 Alpha virt. eigenvalues --    0.94951   0.97449   1.02213   1.10440   1.18678
 Alpha virt. eigenvalues --    1.35130   1.38609   1.44855   1.52182   1.75666
 Alpha virt. eigenvalues --    1.77793   1.79923   1.80250   1.88928   1.91563
 Alpha virt. eigenvalues --    1.98758   2.12254   2.14871   2.23979   2.25846
 Alpha virt. eigenvalues --    2.33522   2.36117   2.43115   2.56948   2.63694
 Alpha virt. eigenvalues --    2.91004   2.92168   3.88157   4.05936   4.26410
 Alpha virt. eigenvalues --    4.45451
          Condensed to atoms (all electrons):
               1          2          3          4          5          6
     1  C    4.508440   0.550456   0.307688  -0.016825  -0.021984  -0.016914
     2  O    0.550456   8.036564  -0.078933  -0.000940   0.003755   0.000132
     3  C    0.307688  -0.078933   5.324974   0.365782   0.339603   0.365162
     4  H   -0.016825  -0.000940   0.365782   0.504375  -0.027173  -0.018035
     5  H   -0.021984   0.003755   0.339603  -0.027173   0.574507  -0.027327
     6  H   -0.016914   0.000132   0.365162  -0.018035  -0.027327   0.502581
     7  C    0.328128  -0.075025  -0.119866   0.003236   0.005474   0.004078
     8  H   -0.020756   0.001288   0.003476   0.000019   0.000130  -0.000279
     9  H   -0.023041   0.001726   0.004651  -0.000141  -0.000639   0.000018
    10  H   -0.020760   0.005054   0.005323  -0.000151  -0.000105  -0.000137
               7          8          9         10
     1  C    0.328128  -0.020756  -0.023041  -0.020760
     2  O   -0.075025   0.001288   0.001726   0.005054
     3  C   -0.119866   0.003476   0.004651   0.005323
     4  H    0.003236   0.000019  -0.000141  -0.000151
     5  H    0.005474   0.000130  -0.000639  -0.000105
     6  H    0.004078  -0.000279   0.000018  -0.000137
     7  C    5.317166   0.354257   0.352928   0.353805
     8  H    0.354257   0.535447  -0.026704  -0.022014
     9  H    0.352928  -0.026704   0.542717  -0.023014
    10  H    0.353805  -0.022014  -0.023014   0.522419
 Mulliken charges:
               1
     1  C    0.425570
     2  O   -0.444078
     3  C   -0.517859
     4  H    0.189853
     5  H    0.153760
     6  H    0.190721
     7  C   -0.524180
     8  H    0.175135
     9  H    0.171498
    10  H    0.179580
    11  H    0.000000
    12  H    0.000000
    13  H    0.000000
 Sum of Mulliken charges =   0.00000
 Mulliken charges with hydrogens summed into heavy atoms:
               1
     1  C    0.425570
     2  O   -0.444078
     3  C    0.016475
     7  C    0.002034
 Electronic spatial extent (au):  <R**2>=            985.1077
 Charge=              0.0000 electrons
 Dipole moment (field-independent basis, Debye):
    X=             -1.5390    Y=             -2.4402    Z=             -0.3800  Tot=              2.9099
 Quadrupole moment (field-independent basis, Debye-Ang):
   XX=            -16.8878   YY=            -28.2782   ZZ=            -23.7593
   XY=              3.0957   XZ=              0.6469   YZ=             -0.5675
 Traceless Quadrupole moment (field-independent basis, Debye-Ang):
   XX=              6.0873   YY=             -5.3031   ZZ=             -0.7842
   XY=              3.0957   XZ=              0.6469   YZ=             -0.5675
 Octapole moment (field-independent basis, Debye-Ang**2):
  XXX=            153.2261  YYY=            -21.8782  ZZZ=              1.8597  XYY=             65.7871
  XXY=             -6.2203  XXZ=             -0.5218  XZZ=             57.7925  YZZ=             -4.7227
  YYZ=              0.0116  XYZ=              1.0077
 Hexadecapole moment (field-independent basis, Debye-Ang**3):
 XXXX=           -990.8577 YYYY=           -170.0962 ZZZZ=            -36.7196 XXXY=             37.1020
 XXXZ=             -0.6983 YYYX=             65.1422 YYYZ=            -10.5015 ZZZX=             -2.1809
 ZZZY=             -7.8875 XXYY=           -212.1340 XXZZ=           -177.3570 YYZZ=            -30.6146
 XXYZ=             -4.6363 YYXZ=              0.5236 ZZXY=             14.9772
 N-N= 1.176008444183D+02 E-N=-6.851792656100D+02  KE= 1.912863568993D+02
 No NMR shielding tensors so no spin-rotation constants.
 Leave Link  601 at Tue Feb  7 16:26:59 2017, MaxMem=  1048576000 cpu:         1.1
 (Enter /mnt/data/applications/G09/g09/l701.exe)
 Compute integral first derivatives.
 ... and contract with generalized density number  0.
 Leave Link  701 at Tue Feb  7 16:26:59 2017, MaxMem=  1048576000 cpu:         1.2
 (Enter /mnt/data/applications/G09/g09/l702.exe)
 L702 exits ... SP integral derivatives will be done elsewhere.
 Leave Link  702 at Tue Feb  7 16:26:59 2017, MaxMem=  1048576000 cpu:         0.2
 (Enter /mnt/data/applications/G09/g09/l703.exe)
 Compute integral first derivatives, UseDBF=F ICtDFT=           0.
 Integral derivatives from FoFJK, PRISM(SPDF).
 Calling FoFJK, ICntrl=      2127 FMM=F ISym2X=0 I1Cent= 0 IOpClX= 0 NMat=1 NMatS=1 NMatT=0.
 FoFJK:  IHMeth= 1 ICntrl=    2127 DoSepK=F KAlg= 0 I1Cent=   0 FoldK=F
 IRaf=         0 NMat=   1 IRICut=       1 DoRegI=T DoRafI=F ISym2E= 0.
 FoFCou: FMM=F IPFlag=           0 FMFlag=      100000 FMFlg1=         800
         NFxFlg=           0 DoJE=F BraDBF=F KetDBF=F FulRan=T
         wScrn=  0.000000 ICntrl=    2127 IOpCl=  0 I1Cent=           0 NGrid=           0
         NMat0=    1 NMatS0=      1 NMatT0=    0 NMatD0=    1 NMtDS0=    0 NMtDT0=    0
 Symmetry not used in FoFCou.
 Leave Link  703 at Tue Feb  7 16:27:00 2017, MaxMem=  1048576000 cpu:         4.7
 (Enter /mnt/data/applications/G09/g09/l716.exe)
 Dipole        =-6.05489458D-01-9.60062300D-01-1.49492233D-01
 Cartesian Forces:  Max     0.050295081 RMS     0.017024037
 Leave Link  716 at Tue Feb  7 16:27:00 2017, MaxMem=  1048576000 cpu:         0.2
 (Enter /mnt/data/applications/G09/g09/l120.exe)
 SvSCFP is copying densities from files   528 and   530 to   603.
 ONIOM: saving gridpoint  2
 ONIOM: restoring gridpoint 17
 ONIOM: generating point  1 -- low level on model system.
 Leave Link  120 at Tue Feb  7 16:27:00 2017, MaxMem=  1048576000 cpu:         0.2
 (Enter /mnt/data/applications/G09/g09/l301.exe)
 Standard basis: STO-3G (5D, 7F)
 Ernie: Thresh=  0.10000D-02 Tol=  0.10000D-05 Strict=F.
    26 basis functions,    78 primitive gaussians,    26 cartesian basis functions
    16 alpha electrons       16 beta electrons
       nuclear repulsion energy       117.6008444183 Hartrees.
 IExCor=    0 DFT=F Ex=HF Corr=None ExCW=0 ScaHFX=  1.000000
 ScaDFX=  1.000000  1.000000  1.000000  1.000000 ScalE2=  1.000000  1.000000
 IRadAn=      0 IRanWt=     -1 IRanGd=            0 ICorTp=0 IEmpDi=  4
 NAtoms=   13 NActive=   10 NUniq=   10 SFac= 1.00D+00 NAtFMM=   60 NAOKFM=F Big=F
 Integral buffers will be    131072 words long.
 Raffenetti 1 integral format.
 Two-electron integral symmetry is turned off.
 Leave Link  301 at Tue Feb  7 16:27:00 2017, MaxMem=  1048576000 cpu:         0.5
 (Enter /mnt/data/applications/G09/g09/l402.exe)
 External calculation of energy and first derivatives.
 Running external command "./sictwo_files/sictwo_g09d01 M"
         input file       "/scratch/Gau-26156.EIn"
         output file      "/scratch/Gau-26156.EOu"
         message file     "/scratch/Gau-26156.EMs"
         fchk file        "/scratch/Gau-26156.EFC"
         mat. el file     "/scratch/Gau-26156.EUF"

---------------------------- SICTWO Version 1.0 STARTED -----------------------------

MM calculations started
MM calculations finished ....
Information recovery

---------------------------- SICTWO Version 1.0 FINISHED -----------------------------

 Recovered energy= 0.829851784740E-02 dipole=     -0.764435156449     -1.314450775963     -0.197895462529
 Energy=    8.298517847E-03 NIter=   0.
 Dipole moment=      -0.764435      -1.314451      -0.197895
 Leave Link  402 at Tue Feb  7 16:27:03 2017, MaxMem=  1048576000 cpu:        15.9
 (Enter /mnt/data/applications/G09/g09/l601.exe)
 Leave Link  601 at Tue Feb  7 16:27:03 2017, MaxMem=  1048576000 cpu:         0.2
 (Enter /mnt/data/applications/G09/g09/l716.exe)
 Dipole        =-7.64435156D-01-1.31445078D+00-1.97895463D-01
 Cartesian Forces:  Max     0.029545163 RMS     0.010917337
 Leave Link  716 at Tue Feb  7 16:27:03 2017, MaxMem=  1048576000 cpu:         0.2
 (Enter /mnt/data/applications/G09/g09/l120.exe)
 SvSCFP did not find density file   528.
 ONIOM: saving gridpoint  1
 ONIOM: restoring gridpoint  3
 ONIOM: calculating energy.
 ONIOM: gridpoint  1 method:  low   system:  model energy:     0.008298517847
 ONIOM: gridpoint  2 method:  high  system:  model energy:  -193.148481247906
 ONIOM: gridpoint  3 method:  low   system:  real  energy:     0.008085294034
 ONIOM: extrapolated energy =    -193.148694471720
 ONIOM: calculating first derivatives.
 ONIOM: calculating electric field derivatives.
 ONIOM: Integrating ONIOM file  4 number   619
 ONIOM: Dipole        =-6.05489458D-01-9.60062300D-01-1.49492233D-01
 ONIOM: Dipole moment (Debye):
    X=    -1.5390    Y=    -2.4402    Z=    -0.3800  Tot=     2.9099
 ONIOM: Integrating ONIOM file  5 number   695
 Nuclear Quadrupole Tensors: 
                 1             2             3             4             5 
      1   0.262738D+00  0.131931D+01 -0.725295D-01  0.109481D+00  0.106786D+00
      2  -0.218730D-01 -0.116152D+01  0.133140D-02  0.792397D-01 -0.155805D+00
      3   0.222406D+00 -0.355562D-01  0.440114D-01  0.589046D-01 -0.277064D+00
      4  -0.454330D-02 -0.199258D+00  0.259702D-02 -0.135798D+00  0.126035D-03
      5   0.109808D+00  0.205886D+00  0.863485D-02  0.194571D+00 -0.610967D-03
      6  -0.485143D+00 -0.128376D+01  0.285181D-01 -0.168386D+00  0.170278D+00
                 6             7             8             9            10 
      1   0.109418D+00 -0.123946D-02  0.147919D+00  0.123763D+00  0.000000D+00
      2   0.792646D-01  0.609427D-01 -0.581329D-01 -0.599433D-01  0.000000D+00
      3   0.579035D-01 -0.116113D-01 -0.246418D-01  0.741126D-01  0.000000D+00
      4   0.135623D+00  0.937142D-02  0.778357D-01 -0.127186D+00  0.000000D+00
      5  -0.193685D+00 -0.532756D-02  0.237263D+00 -0.186133D+00  0.000000D+00
      6  -0.167321D+00  0.128508D-01 -0.123277D+00 -0.197876D+00  0.000000D+00
                11            12            13 
      1   0.000000D+00  0.000000D+00  0.000000D+00
      2   0.000000D+00  0.000000D+00  0.000000D+00
      3   0.000000D+00  0.000000D+00  0.000000D+00
      4   0.000000D+00  0.000000D+00  0.000000D+00
      5   0.000000D+00  0.000000D+00  0.000000D+00
      6   0.000000D+00  0.000000D+00  0.000000D+00
 Saving ESP charges from gridpoint 2
 Leave Link  120 at Tue Feb  7 16:27:03 2017, MaxMem=  1048576000 cpu:         0.0
 (Enter /mnt/data/applications/G09/g09/l716.exe)
 Dipole        =-6.05489458D-01-9.60062300D-01-1.49492233D-01
 -------------------------------------------------------------------
 Center     Atomic                   Forces (Hartrees/Bohr)
 Number     Number              X              Y              Z
 -------------------------------------------------------------------
      1        6           0.029975961    0.050866508    0.008100092
      2        8          -0.034611748   -0.045860435   -0.006842962
      3        6           0.030652244   -0.011454769    0.001489729
      4        1          -0.005754894    0.009175508   -0.013653016
      5        1          -0.009932807   -0.015180331   -0.000761730
      6        1          -0.005081897    0.009813124    0.012377536
      7        6           0.015006518    0.033048504    0.001275354
      8        1          -0.006487502   -0.014020477    0.012589887
      9        1          -0.007976244   -0.011211596   -0.014480889
     10        6          -0.027761060   -0.008915973    0.000708985
     11        1           0.008576330   -0.011706565   -0.002063379
     12        1           0.005998962    0.009291109   -0.010813597
     13        1           0.007396052    0.006155393    0.012074242
 -------------------------------------------------------------------
 Cartesian Forces:  Max     0.050866508 RMS     0.017931226
 Leave Link  716 at Tue Feb  7 16:27:03 2017, MaxMem=  1048576000 cpu:         0.2
 (Enter /mnt/data/applications/G09/g09/l103.exe)

 GradGradGradGradGradGradGradGradGradGradGradGradGradGradGradGradGradGrad
 Berny optimization.
 FormGI is forming the generalized inverse of G from B-inverse, IUseBI=4.
 Internal  Forces:  Max     0.057448418 RMS     0.010965072
 Search for a local minimum.
 Step number   1 out of a maximum of   64
 All quantities printed in internal units (Hartrees-Bohrs-Radians)
 RMS Force = .10965D-01 SwitMx=.10000D-02 MixMth= 1
 Mixed Optimization -- RFO/linear search
 Second derivative matrix not updated -- first step.
 ITU=  0
     Eigenvalues ---    0.00237   0.00237   0.00237   0.00237   0.04356
     Eigenvalues ---    0.05410   0.05720   0.05720   0.07243   0.07243
     Eigenvalues ---    0.08669   0.12376   0.16000   0.16000   0.16000
     Eigenvalues ---    0.16000   0.16000   0.16000   0.21983   0.25000
     Eigenvalues ---    0.25000   0.28519   0.28519   0.28519   0.37230
     Eigenvalues ---    0.37230   0.37230   0.37230   0.37230   0.37230
     Eigenvalues ---    0.37230   0.37230   0.80209
 RFO step:  Lambda=-1.42514862D-02 EMin= 2.36824121D-03
 Linear search not attempted -- first point.
 Iteration  1 RMS(Cart)=  0.05397838 RMS(Int)=  0.00161193
 Iteration  2 RMS(Cart)=  0.00203688 RMS(Int)=  0.00022367
 Iteration  3 RMS(Cart)=  0.00000177 RMS(Int)=  0.00022366
 Iteration  4 RMS(Cart)=  0.00000000 RMS(Int)=  0.00022366
 ITry= 1 IFail=0 DXMaxC= 1.53D-01 DCOld= 1.00D+10 DXMaxT= 3.00D-01 DXLimC= 3.00D+00 Rises=F
 Variable       Old X    -DE/DX   Delta X   Delta X   Delta X     New X
                                 (Linear)    (Quad)   (Total)
    R1        2.37803  -0.05745   0.00000  -0.07037  -0.07037   2.30766
    R2        2.91018  -0.00988   0.00000  -0.03300  -0.03300   2.87718
    R3        2.91018  -0.00479   0.00000  -0.01599  -0.01599   2.89419
    R4        2.02201   0.01739   0.00000   0.04499   0.04499   2.06700
    R5        2.02201   0.01762   0.00000   0.04559   0.04559   2.06760
    R6        2.02201   0.01643   0.00000   0.04249   0.04249   2.06450
    R7        2.02201   0.01951   0.00000   0.05046   0.05046   2.07247
    R8        2.02201   0.01951   0.00000   0.05047   0.05047   2.07248
    R9        2.91018  -0.00665   0.00000  -0.02220  -0.02220   2.88798
   R10        2.02201   0.01458   0.00000   0.03771   0.03771   2.05972
   R11        2.02201   0.01514   0.00000   0.03916   0.03916   2.06117
   R12        2.02201   0.01512   0.00000   0.03912   0.03912   2.06113
    A1        2.09241  -0.00173   0.00000  -0.00654  -0.00654   2.08588
    A2        2.09836   0.01469   0.00000   0.05560   0.05560   2.15395
    A3        2.09241  -0.01297   0.00000  -0.04907  -0.04907   2.04335
    A4        1.91063  -0.00162   0.00000  -0.01375  -0.01395   1.89668
    A5        1.91063   0.00732   0.00000   0.04861   0.04850   1.95913
    A6        1.91063  -0.00182   0.00000  -0.01256  -0.01285   1.89778
    A7        1.91063  -0.00193   0.00000  -0.00685  -0.00688   1.90375
    A8        1.91063  -0.00112   0.00000  -0.01962  -0.02001   1.89062
    A9        1.91063  -0.00083   0.00000   0.00417   0.00398   1.91461
   A10        1.91063  -0.00383   0.00000  -0.01611  -0.01675   1.89388
   A11        1.91063  -0.00338   0.00000  -0.01019  -0.01105   1.89959
   A12        1.91063   0.01105   0.00000   0.05766   0.05713   1.96776
   A13        1.91063  -0.00110   0.00000  -0.03945  -0.03972   1.87091
   A14        1.91063  -0.00137   0.00000   0.00292   0.00289   1.91352
   A15        1.91063  -0.00137   0.00000   0.00517   0.00491   1.91554
   A16        1.91063   0.00068   0.00000   0.00214   0.00213   1.91276
   A17        1.91063   0.00366   0.00000   0.02202   0.02183   1.93247
   A18        1.91063   0.00354   0.00000   0.02108   0.02089   1.93152
   A19        1.91063  -0.00241   0.00000  -0.01535  -0.01537   1.89527
   A20        1.91063  -0.00242   0.00000  -0.01591  -0.01593   1.89471
   A21        1.91063  -0.00306   0.00000  -0.01398  -0.01432   1.89631
    D1        1.19651  -0.00144   0.00000  -0.01182  -0.01162   1.18489
    D2       -2.99228  -0.00031   0.00000   0.00115   0.00113  -2.99115
    D3       -0.89788   0.00204   0.00000   0.02833   0.02828  -0.86960
    D4       -1.94508  -0.00136   0.00000  -0.00728  -0.00717  -1.95225
    D5        0.14931  -0.00024   0.00000   0.00569   0.00558   0.15489
    D6        2.24371   0.00212   0.00000   0.03287   0.03273   2.27644
    D7        2.02617   0.00289   0.00000   0.03469   0.03447   2.06064
    D8       -2.16262  -0.00287   0.00000  -0.02973  -0.02948  -2.19210
    D9       -0.06822   0.00015   0.00000   0.00567   0.00578  -0.06244
   D10       -1.11542   0.00282   0.00000   0.03013   0.02983  -1.08559
   D11        0.97898  -0.00294   0.00000  -0.03428  -0.03412   0.94485
   D12        3.07337   0.00008   0.00000   0.00112   0.00114   3.07451
   D13       -3.11765  -0.00026   0.00000  -0.00590  -0.00593  -3.12359
   D14       -1.02326  -0.00054   0.00000  -0.00989  -0.01001  -1.03327
   D15        1.07114   0.00012   0.00000  -0.00063  -0.00057   1.07056
   D16        1.07114  -0.00149   0.00000  -0.02327  -0.02346   1.04768
   D17       -3.11765  -0.00178   0.00000  -0.02726  -0.02753   3.13800
   D18       -1.02326  -0.00111   0.00000  -0.01799  -0.01810  -1.04136
   D19       -1.02326   0.00153   0.00000   0.02009   0.02031  -1.00295
   D20        1.07114   0.00124   0.00000   0.01610   0.01623   1.08737
   D21       -3.11765   0.00191   0.00000   0.02536   0.02567  -3.09199
         Item               Value     Threshold  Converged?
 Maximum Force            0.057448     0.000450     NO 
 RMS     Force            0.010965     0.000300     NO 
 Maximum Displacement     0.153286     0.001800     NO 
 RMS     Displacement     0.053517     0.001200     NO 
 Predicted change in Energy=-7.463686D-03
 Lowest energy point so far.  Saving SCF results.
 GradGradGradGradGradGradGradGradGradGradGradGradGradGradGradGradGradGrad

 Leave Link  103 at Tue Feb  7 16:27:03 2017, MaxMem=  1048576000 cpu:         0.0
 (Enter /mnt/data/applications/G09/g09/l202.exe)
                          Input orientation:                          
 ---------------------------------------------------------------------
 Center     Atomic      Atomic             Coordinates (Angstroms)
 Number     Number       Type             X           Y           Z
 ---------------------------------------------------------------------
      1          6    10061002       -2.365974    0.435071    0.011988
      2          8    10081002       -1.822496    1.516244    0.176085
      3          6    10061003       -3.886303    0.353827    0.001160
      4          1    10011000       -4.257930    0.864708   -0.891762
      5          1    10011000       -4.245946   -0.679496   -0.002314
      6          1    10011000       -4.271822    0.874975    0.880538
      7          6    10061003       -1.596501   -0.872995   -0.194137
      8          1    10011000       -1.839783   -1.553743    0.630576
      9          1    10011000       -1.945409   -1.347046   -1.119505
     10          6    10061003       -0.083892   -0.664773   -0.259016
     11          1    10011000        0.410089   -1.622182   -0.424409
     12          1    10011000        0.178395    0.007689   -1.076744
     13          1    10011000        0.286591   -0.239704    0.674628
 ---------------------------------------------------------------------
                    Distance matrix (angstroms):
                    1          2          3          4          5
     1  C    0.000000
     2  O    1.221160   0.000000
     3  C    1.522536   2.375102   0.000000
     4  H    2.140292   2.737907   1.093808   0.000000
     5  H    2.185579   3.275089   1.094126   1.782085   0.000000
     6  H    2.140129   2.628055   1.092487   1.772384   1.787869
     7  C    1.531539   2.428291   2.605077   3.254151   2.663418
     8  H    2.148234   3.103495   2.867617   3.743508   2.637134
     9  H    2.152461   3.145169   2.813526   3.208033   2.643144
    10  C    2.547744   2.822923   3.945068   4.490242   4.169988
    11  H    3.482708   3.898044   4.748126   5.309750   4.769222
    12  H    2.800322   2.801586   4.219414   4.522132   4.604499
    13  H    2.816117   2.789291   4.268358   4.932138   4.603863
                    6          7          8          9         10
     6  H    0.000000
     7  C    3.371597   0.000000
     8  H    3.446152   1.096702   0.000000
     9  H    3.788106   1.096708   1.765407   0.000000
    10  C    4.605232   1.528251   2.159814   2.161291   0.000000
    11  H    5.464336   2.154230   2.485881   2.471280   1.089955
    12  H    4.938377   2.169067   3.070188   2.519460   1.090724
    13  H    4.697238   2.168374   2.500022   3.070333   1.090703
                   11         12         13
    11  H    0.000000
    12  H    1.770791   0.000000
    13  H    1.770418   1.772064   0.000000
 Symmetry turned off by external request.
 Stoichiometry    C4H8O
 Framework group  C1[X(C4H8O)]
 Deg. of freedom    33
 Full point group                 C1      NOp   1
 Rotational constants (GHZ):      9.5185103      3.5499493      2.7185592
 Leave Link  202 at Tue Feb  7 16:27:03 2017, MaxMem=  1048576000 cpu:         0.0
 (Enter /mnt/data/applications/G09/g09/l120.exe)
 SvSCFP did not find density file   528.
 ONIOM: saving gridpoint 17
 ONIOM: restoring gridpoint  3
 ONIOM: restoring gridpoint  3 on chk file.
 ONIOM: generating point  3 -- low level on real system.
 Leave Link  120 at Tue Feb  7 16:27:03 2017, MaxMem=  1048576000 cpu:         0.0
 (Enter /mnt/data/applications/G09/g09/l301.exe)
 Standard basis: STO-3G (5D, 7F)
 Ernie: Thresh=  0.10000D-02 Tol=  0.10000D-05 Strict=F.
    33 basis functions,    99 primitive gaussians,    33 cartesian basis functions
    20 alpha electrons       20 beta electrons
       nuclear repulsion energy       175.3172750696 Hartrees.
 IExCor=    0 DFT=F Ex=HF Corr=None ExCW=0 ScaHFX=  1.000000
 ScaDFX=  1.000000  1.000000  1.000000  1.000000 ScalE2=  1.000000  1.000000
 IRadAn=      0 IRanWt=     -1 IRanGd=            0 ICorTp=0 IEmpDi=  4
 NAtoms=   13 NActive=   13 NUniq=   13 SFac= 1.00D+00 NAtFMM=   60 NAOKFM=F Big=F
 Integral buffers will be    131072 words long.
 Raffenetti 1 integral format.
 Two-electron integral symmetry is turned off.
 Leave Link  301 at Tue Feb  7 16:27:03 2017, MaxMem=  1048576000 cpu:         0.6
 (Enter /mnt/data/applications/G09/g09/l402.exe)
 External calculation of energy and first derivatives.
 Running external command "./sictwo_files/sictwo_g09d01 R"
         input file       "/scratch/Gau-26156.EIn"
         output file      "/scratch/Gau-26156.EOu"
         message file     "/scratch/Gau-26156.EMs"
         fchk file        "/scratch/Gau-26156.EFC"
         mat. el file     "/scratch/Gau-26156.EUF"

---------------------------- SICTWO Version 1.0 STARTED -----------------------------

MM calculations started
MM calculations finished ....
Information recovery

---------------------------- SICTWO Version 1.0 FINISHED -----------------------------

 Recovered energy= 0.285637043240E-02 dipole=     -0.671979025844     -1.324679964881     -0.201829765959
 Energy=    2.856370432E-03 NIter=   0.
 Dipole moment=      -0.671979      -1.324680      -0.201830
 Leave Link  402 at Tue Feb  7 16:27:06 2017, MaxMem=  1048576000 cpu:        16.5
 (Enter /mnt/data/applications/G09/g09/l716.exe)
 Dipole        =-6.71979026D-01-1.32467996D+00-2.01829766D-01
 Cartesian Forces:  Max     0.016604012 RMS     0.004696585
 Leave Link  716 at Tue Feb  7 16:27:06 2017, MaxMem=  1048576000 cpu:         0.2
 (Enter /mnt/data/applications/G09/g09/l120.exe)
 SvSCFP did not find density file   528.
 ONIOM: saving gridpoint  3
 ONIOM: restoring gridpoint  2
 ONIOM: restoring gridpoint  2 on chk file.
 ONIOM: generating point  2 -- high level on model system.
 Leave Link  120 at Tue Feb  7 16:27:06 2017, MaxMem=  1048576000 cpu:         0.0
 (Enter /mnt/data/applications/G09/g09/l301.exe)
 Standard basis: 6-31G(d) (6D, 7F)
 Ernie: Thresh=  0.10000D-02 Tol=  0.10000D-05 Strict=F.
    72 basis functions,   136 primitive gaussians,    72 cartesian basis functions
    16 alpha electrons       16 beta electrons
       nuclear repulsion energy       118.5783097329 Hartrees.
 IExCor=  402 DFT=T Ex+Corr=B3LYP ExCW=0 ScaHFX=  0.200000
 ScaDFX=  0.800000  0.720000  1.000000  0.810000 ScalE2=  1.000000  1.000000
 IRadAn=      0 IRanWt=     -1 IRanGd=            0 ICorTp=0 IEmpDi=  4
 NAtoms=   13 NActive=   10 NUniq=   10 SFac= 1.00D+00 NAtFMM=   60 NAOKFM=F Big=F
 Integral buffers will be    131072 words long.
 Raffenetti 2 integral format.
 Two-electron integral symmetry is turned off.
 Leave Link  301 at Tue Feb  7 16:27:06 2017, MaxMem=  1048576000 cpu:         0.5
 (Enter /mnt/data/applications/G09/g09/l302.exe)
 NPDir=0 NMtPBC=     1 NCelOv=     1 NCel=       1 NClECP=     1 NCelD=      1
         NCelK=      1 NCelE2=     1 NClLst=     1 CellRange=     0.0.
 One-electron integrals computed using PRISM.
 NBasis=    72 RedAO= T EigKep=  4.81D-03  NBF=    72
 NBsUse=    72 1.00D-06 EigRej= -1.00D+00 NBFU=    72
 Precomputing XC quadrature grid using
 IXCGrd= 4 IRadAn=           0 IRanWt=          -1 IRanGd=           0 AccXCQ= 0.00D+00.
 Generated NRdTot=       0 NPtTot=           0 NUsed=           0 NTot=          32
 NSgBfM=    72    72    72    72    72 MxSgAt=    10 MxSgA2=    10.
 Leave Link  302 at Tue Feb  7 16:27:06 2017, MaxMem=  1048576000 cpu:         1.3
 (Enter /mnt/data/applications/G09/g09/l303.exe)
 DipDrv:  MaxL=1.
 Leave Link  303 at Tue Feb  7 16:27:07 2017, MaxMem=  1048576000 cpu:         0.2
 (Enter /mnt/data/applications/G09/g09/l401.exe)
 Initial guess from the checkpoint file:  "C_2.chk"
 B after Tr=    -0.018717    0.186247    0.027747
         Rot=    0.999895   -0.001485    0.001805   -0.014302 Ang=  -1.66 deg.
 Guess basis will be translated and rotated to current coordinates.
 JPrj=2 DoOrth=T DoCkMO=T.
 Generating alternative initial guess.
 ExpMin= 1.61D-01 ExpMax= 5.48D+03 ExpMxC= 8.25D+02 IAcc=1 IRadAn=         1 AccDes= 0.00D+00
 Harris functional with IExCor=  402 and IRadAn=       1 diagonalized for initial guess.
 HarFok:  IExCor=  402 AccDes= 0.00D+00 IRadAn=         1 IDoV= 1 UseB2=F ITyADJ=14
 ICtDFT=  3500011 ScaDFX=  1.000000  1.000000  1.000000  1.000000
 FoFCou: FMM=F IPFlag=           0 FMFlag=      100000 FMFlg1=           0
         NFxFlg=           0 DoJE=T BraDBF=F KetDBF=T FulRan=T
         wScrn=  0.000000 ICntrl=     500 IOpCl=  0 I1Cent=   200000004 NGrid=           0
         NMat0=    1 NMatS0=      1 NMatT0=    0 NMatD0=    1 NMtDS0=    0 NMtDT0=    0
 Symmetry not used in FoFCou.
 Harris En= -193.200841777265    
 Leave Link  401 at Tue Feb  7 16:27:07 2017, MaxMem=  1048576000 cpu:         2.0
 (Enter /mnt/data/applications/G09/g09/l502.exe)
 Closed shell SCF:
 Using DIIS extrapolation, IDIIS=  1040.
 Two-electron integral symmetry not used.
 Keep R1 ints in memory in canonical form, NReq=4377290.
 IVT=       28612 IEndB=       28612 NGot=  1048576000 MDV=  1045092883
 LenX=  1045092883 LenY=  1045087258
 Requested convergence on RMS density matrix=1.00D-08 within 100 cycles.
 Requested convergence on MAX density matrix=1.00D-06.
 Requested convergence on             energy=1.00D-06.
 No special actions if energy rises.
 FoFCou: FMM=F IPFlag=           0 FMFlag=           0 FMFlg1=           0
         NFxFlg=           0 DoJE=F BraDBF=F KetDBF=F FulRan=T
         wScrn=  0.000000 ICntrl=     600 IOpCl=  0 I1Cent=           0 NGrid=           0
         NMat0=    1 NMatS0=   2628 NMatT0=    0 NMatD0=    1 NMtDS0=    0 NMtDT0=    0
 Symmetry not used in FoFCou.
 Integral accuracy reduced to 1.0D-05 until final iterations.

 Cycle   1  Pass 0  IDiag  1:
 E= -193.150939053524    
 DIIS: error= 3.67D-03 at cycle   1 NSaved=   1.
 NSaved= 1 IEnMin= 1 EnMin= -193.150939053524     IErMin= 1 ErrMin= 3.67D-03
 ErrMax= 3.67D-03  0.00D+00 EMaxC= 1.00D-01 BMatC= 1.94D-03 BMatP= 1.94D-03
 IDIUse=3 WtCom= 9.63D-01 WtEn= 3.67D-02
 Coeff-Com:  0.100D+01
 Coeff-En:   0.100D+01
 Coeff:      0.100D+01
 Gap=     1.913 Goal=   None    Shift=    0.000
 GapD=    1.913 DampG=2.000 DampE=1.000 DampFc=2.0000 IDamp=-1.
 RMSDP=1.02D-03 MaxDP=1.05D-02              OVMax= 1.60D-02

 Cycle   2  Pass 0  IDiag  1:
 E= -193.153486721947     Delta-E=       -0.002547668424 Rises=F Damp=F
 DIIS: error= 2.65D-03 at cycle   2 NSaved=   2.
 NSaved= 2 IEnMin= 2 EnMin= -193.153486721947     IErMin= 2 ErrMin= 2.65D-03
 ErrMax= 2.65D-03  0.00D+00 EMaxC= 1.00D-01 BMatC= 6.22D-04 BMatP= 1.94D-03
 IDIUse=3 WtCom= 9.74D-01 WtEn= 2.65D-02
 Coeff-Com:  0.295D+00 0.705D+00
 Coeff-En:   0.000D+00 0.100D+01
 Coeff:      0.287D+00 0.713D+00
 Gap=     0.228 Goal=   None    Shift=    0.000
 RMSDP=5.58D-04 MaxDP=9.55D-03 DE=-2.55D-03 OVMax= 1.51D-02

 Cycle   3  Pass 0  IDiag  1:
 E= -193.153526062204     Delta-E=       -0.000039340256 Rises=F Damp=F
 DIIS: error= 3.18D-03 at cycle   3 NSaved=   3.
 NSaved= 3 IEnMin= 3 EnMin= -193.153526062204     IErMin= 2 ErrMin= 2.65D-03
 ErrMax= 3.18D-03  0.00D+00 EMaxC= 1.00D-01 BMatC= 6.05D-04 BMatP= 6.22D-04
 IDIUse=3 WtCom= 9.68D-01 WtEn= 3.18D-02
 Coeff-Com:  0.121D-01 0.494D+00 0.494D+00
 Coeff-En:   0.000D+00 0.484D+00 0.516D+00
 Coeff:      0.117D-01 0.493D+00 0.495D+00
 Gap=     0.232 Goal=   None    Shift=    0.000
 RMSDP=3.43D-04 MaxDP=7.09D-03 DE=-3.93D-05 OVMax= 1.17D-02

 Cycle   4  Pass 0  IDiag  1:
 E= -193.153966686394     Delta-E=       -0.000440624190 Rises=F Damp=F
 DIIS: error= 1.15D-03 at cycle   4 NSaved=   4.
 NSaved= 4 IEnMin= 4 EnMin= -193.153966686394     IErMin= 4 ErrMin= 1.15D-03
 ErrMax= 1.15D-03  0.00D+00 EMaxC= 1.00D-01 BMatC= 6.45D-05 BMatP= 6.05D-04
 IDIUse=3 WtCom= 9.88D-01 WtEn= 1.15D-02
 Coeff-Com: -0.196D-01 0.248D+00 0.327D+00 0.445D+00
 Coeff-En:   0.000D+00 0.000D+00 0.491D-01 0.951D+00
 Coeff:     -0.193D-01 0.245D+00 0.323D+00 0.451D+00
 Gap=     0.230 Goal=   None    Shift=    0.000
 RMSDP=7.68D-05 MaxDP=1.51D-03 DE=-4.41D-04 OVMax= 2.44D-03

 Cycle   5  Pass 0  IDiag  1:
 E= -193.154018268706     Delta-E=       -0.000051582312 Rises=F Damp=F
 DIIS: error= 5.49D-05 at cycle   5 NSaved=   5.
 NSaved= 5 IEnMin= 5 EnMin= -193.154018268706     IErMin= 5 ErrMin= 5.49D-05
 ErrMax= 5.49D-05  0.00D+00 EMaxC= 1.00D-01 BMatC= 2.69D-07 BMatP= 6.45D-05
 IDIUse=1 WtCom= 1.00D+00 WtEn= 0.00D+00
 Coeff-Com: -0.482D-02 0.327D-01 0.596D-01 0.101D+00 0.812D+00
 Coeff:     -0.482D-02 0.327D-01 0.596D-01 0.101D+00 0.812D+00
 Gap=     0.230 Goal=   None    Shift=    0.000
 RMSDP=1.13D-05 MaxDP=1.15D-04 DE=-5.16D-05 OVMax= 1.75D-04

 Cycle   6  Pass 0  IDiag  1:
 E= -193.154018547857     Delta-E=       -0.000000279151 Rises=F Damp=F
 DIIS: error= 6.85D-06 at cycle   6 NSaved=   6.
 NSaved= 6 IEnMin= 6 EnMin= -193.154018547857     IErMin= 6 ErrMin= 6.85D-06
 ErrMax= 6.85D-06  0.00D+00 EMaxC= 1.00D-01 BMatC= 5.80D-09 BMatP= 2.69D-07
 IDIUse=1 WtCom= 1.00D+00 WtEn= 0.00D+00
 Coeff-Com: -0.327D-03-0.129D-02 0.111D-02 0.577D-02 0.166D+00 0.829D+00
 Coeff:     -0.327D-03-0.129D-02 0.111D-02 0.577D-02 0.166D+00 0.829D+00
 Gap=     0.230 Goal=   None    Shift=    0.000
 RMSDP=1.61D-06 MaxDP=1.35D-05 DE=-2.79D-07 OVMax= 3.02D-05

 Initial convergence to 1.0D-05 achieved.  Increase integral accuracy.
 Cycle   7  Pass 1  IDiag  1:
 E= -193.153994397409     Delta-E=        0.000024150448 Rises=F Damp=F
 DIIS: error= 7.01D-06 at cycle   1 NSaved=   1.
 NSaved= 1 IEnMin= 1 EnMin= -193.153994397409     IErMin= 1 ErrMin= 7.01D-06
 ErrMax= 7.01D-06  0.00D+00 EMaxC= 1.00D-01 BMatC= 5.11D-09 BMatP= 5.11D-09
 IDIUse=1 WtCom= 1.00D+00 WtEn= 0.00D+00
 Coeff-Com:  0.100D+01
 Coeff:      0.100D+01
 Gap=     0.230 Goal=   None    Shift=    0.000
 RMSDP=1.61D-06 MaxDP=1.35D-05 DE= 2.42D-05 OVMax= 2.11D-05

 Cycle   8  Pass 1  IDiag  1:
 E= -193.153994402400     Delta-E=       -0.000000004991 Rises=F Damp=F
 DIIS: error= 5.06D-06 at cycle   2 NSaved=   2.
 NSaved= 2 IEnMin= 2 EnMin= -193.153994402400     IErMin= 2 ErrMin= 5.06D-06
 ErrMax= 5.06D-06  0.00D+00 EMaxC= 1.00D-01 BMatC= 1.44D-09 BMatP= 5.11D-09
 IDIUse=1 WtCom= 1.00D+00 WtEn= 0.00D+00
 Coeff-Com:  0.280D+00 0.720D+00
 Coeff:      0.280D+00 0.720D+00
 Gap=     0.230 Goal=   None    Shift=    0.000
 RMSDP=1.07D-06 MaxDP=1.73D-05 DE=-4.99D-09 OVMax= 2.61D-05

 Cycle   9  Pass 1  IDiag  1:
 E= -193.153994402633     Delta-E=       -0.000000000233 Rises=F Damp=F
 DIIS: error= 4.86D-06 at cycle   3 NSaved=   3.
 NSaved= 3 IEnMin= 3 EnMin= -193.153994402633     IErMin= 3 ErrMin= 4.86D-06
 ErrMax= 4.86D-06  0.00D+00 EMaxC= 1.00D-01 BMatC= 1.34D-09 BMatP= 1.44D-09
 IDIUse=1 WtCom= 1.00D+00 WtEn= 0.00D+00
 Coeff-Com:  0.287D-01 0.486D+00 0.486D+00
 Coeff:      0.287D-01 0.486D+00 0.486D+00
 Gap=     0.230 Goal=   None    Shift=    0.000
 RMSDP=4.91D-07 MaxDP=1.07D-05 DE=-2.33D-10 OVMax= 1.68D-05

 Cycle  10  Pass 1  IDiag  1:
 E= -193.153994403534     Delta-E=       -0.000000000902 Rises=F Damp=F
 DIIS: error= 1.69D-06 at cycle   4 NSaved=   4.
 NSaved= 4 IEnMin= 4 EnMin= -193.153994403534     IErMin= 4 ErrMin= 1.69D-06
 ErrMax= 1.69D-06  0.00D+00 EMaxC= 1.00D-01 BMatC= 1.38D-10 BMatP= 1.34D-09
 IDIUse=1 WtCom= 1.00D+00 WtEn= 0.00D+00
 Coeff-Com: -0.146D-01 0.231D+00 0.312D+00 0.471D+00
 Coeff:     -0.146D-01 0.231D+00 0.312D+00 0.471D+00
 Gap=     0.230 Goal=   None    Shift=    0.000
 RMSDP=1.32D-07 MaxDP=2.33D-06 DE=-9.02D-10 OVMax= 3.69D-06

 Cycle  11  Pass 1  IDiag  1:
 E= -193.153994403658     Delta-E=       -0.000000000124 Rises=F Damp=F
 DIIS: error= 9.43D-08 at cycle   5 NSaved=   5.
 NSaved= 5 IEnMin= 5 EnMin= -193.153994403658     IErMin= 5 ErrMin= 9.43D-08
 ErrMax= 9.43D-08  0.00D+00 EMaxC= 1.00D-01 BMatC= 8.19D-13 BMatP= 1.38D-10
 IDIUse=1 WtCom= 1.00D+00 WtEn= 0.00D+00
 Coeff-Com: -0.450D-02 0.563D-01 0.766D-01 0.151D+00 0.720D+00
 Coeff:     -0.450D-02 0.563D-01 0.766D-01 0.151D+00 0.720D+00
 Gap=     0.230 Goal=   None    Shift=    0.000
 RMSDP=1.60D-08 MaxDP=1.68D-07 DE=-1.24D-10 OVMax= 2.58D-07

 Cycle  12  Pass 1  IDiag  1:
 E= -193.153994403655     Delta-E=        0.000000000002 Rises=F Damp=F
 DIIS: error= 3.52D-08 at cycle   6 NSaved=   6.
 NSaved= 6 IEnMin= 5 EnMin= -193.153994403658     IErMin= 6 ErrMin= 3.52D-08
 ErrMax= 3.52D-08  0.00D+00 EMaxC= 1.00D-01 BMatC= 8.05D-14 BMatP= 8.19D-13
 IDIUse=1 WtCom= 1.00D+00 WtEn= 0.00D+00
 Coeff-Com: -0.114D-02 0.102D-01 0.138D-01 0.376D-01 0.299D+00 0.640D+00
 Coeff:     -0.114D-02 0.102D-01 0.138D-01 0.376D-01 0.299D+00 0.640D+00
 Gap=     0.230 Goal=   None    Shift=    0.000
 RMSDP=4.77D-09 MaxDP=7.73D-08 DE= 2.44D-12 OVMax= 9.67D-08

 SCF Done:  E(RB3LYP) =  -193.153994404     A.U. after   12 cycles
            NFock= 12  Conv=0.48D-08     -V/T= 2.0097
 KE= 1.912998580575D+02 PE=-6.871202413335D+02 EE= 1.840880791394D+02
 Leave Link  502 at Tue Feb  7 16:27:08 2017, MaxMem=  1048576000 cpu:        10.8
 (Enter /mnt/data/applications/G09/g09/l701.exe)
 Compute integral first derivatives.
 ... and contract with generalized density number  0.
 Leave Link  701 at Tue Feb  7 16:27:09 2017, MaxMem=  1048576000 cpu:         1.2
 (Enter /mnt/data/applications/G09/g09/l702.exe)
 L702 exits ... SP integral derivatives will be done elsewhere.
 Leave Link  702 at Tue Feb  7 16:27:09 2017, MaxMem=  1048576000 cpu:         0.2
 (Enter /mnt/data/applications/G09/g09/l703.exe)
 Compute integral first derivatives, UseDBF=F ICtDFT=           0.
 Integral derivatives from FoFJK, PRISM(SPDF).
 Calling FoFJK, ICntrl=      2127 FMM=F ISym2X=0 I1Cent= 0 IOpClX= 0 NMat=1 NMatS=1 NMatT=0.
 FoFJK:  IHMeth= 1 ICntrl=    2127 DoSepK=F KAlg= 0 I1Cent=   0 FoldK=F
 IRaf=         0 NMat=   1 IRICut=       1 DoRegI=T DoRafI=F ISym2E= 0.
 FoFCou: FMM=F IPFlag=           0 FMFlag=      100000 FMFlg1=         800
         NFxFlg=           0 DoJE=F BraDBF=F KetDBF=F FulRan=T
         wScrn=  0.000000 ICntrl=    2127 IOpCl=  0 I1Cent=           0 NGrid=           0
         NMat0=    1 NMatS0=      1 NMatT0=    0 NMatD0=    1 NMtDS0=    0 NMtDT0=    0
 Symmetry not used in FoFCou.
 Leave Link  703 at Tue Feb  7 16:27:09 2017, MaxMem=  1048576000 cpu:         4.0
 (Enter /mnt/data/applications/G09/g09/l716.exe)
 Dipole        =-5.20877929D-01-9.43731368D-01-1.52018717D-01
 Cartesian Forces:  Max     0.010255290 RMS     0.003473486
 Leave Link  716 at Tue Feb  7 16:27:09 2017, MaxMem=  1048576000 cpu:         0.2
 (Enter /mnt/data/applications/G09/g09/l120.exe)
 SvSCFP is copying densities from files   528 and   530 to   603.
 ONIOM: saving gridpoint  2
 ONIOM: restoring gridpoint  1
 ONIOM: restoring gridpoint  1 on chk file.
 ONIOM: generating point  1 -- low level on model system.
 Leave Link  120 at Tue Feb  7 16:27:09 2017, MaxMem=  1048576000 cpu:         0.2
 (Enter /mnt/data/applications/G09/g09/l301.exe)
 Standard basis: STO-3G (5D, 7F)
 Ernie: Thresh=  0.10000D-02 Tol=  0.10000D-05 Strict=F.
    26 basis functions,    78 primitive gaussians,    26 cartesian basis functions
    16 alpha electrons       16 beta electrons
       nuclear repulsion energy       118.5783097329 Hartrees.
 IExCor=    0 DFT=F Ex=HF Corr=None ExCW=0 ScaHFX=  1.000000
 ScaDFX=  1.000000  1.000000  1.000000  1.000000 ScalE2=  1.000000  1.000000
 IRadAn=      0 IRanWt=     -1 IRanGd=            0 ICorTp=0 IEmpDi=  4
 NAtoms=   13 NActive=   10 NUniq=   10 SFac= 1.00D+00 NAtFMM=   60 NAOKFM=F Big=F
 Integral buffers will be    131072 words long.
 Raffenetti 1 integral format.
 Two-electron integral symmetry is turned off.
 Leave Link  301 at Tue Feb  7 16:27:10 2017, MaxMem=  1048576000 cpu:         0.5
 (Enter /mnt/data/applications/G09/g09/l402.exe)
 External calculation of energy and first derivatives.
 Running external command "./sictwo_files/sictwo_g09d01 M"
         input file       "/scratch/Gau-26156.EIn"
         output file      "/scratch/Gau-26156.EOu"
         message file     "/scratch/Gau-26156.EMs"
         fchk file        "/scratch/Gau-26156.EFC"
         mat. el file     "/scratch/Gau-26156.EUF"

---------------------------- SICTWO Version 1.0 STARTED -----------------------------

MM calculations started
MM calculations finished ....
Information recovery

---------------------------- SICTWO Version 1.0 FINISHED -----------------------------

 Recovered energy= 0.558429662420E-02 dipole=     -0.671979025844     -1.324679964881     -0.201829765959
 Energy=    5.584296624E-03 NIter=   0.
 Dipole moment=      -0.671979      -1.324680      -0.201830
 Leave Link  402 at Tue Feb  7 16:27:12 2017, MaxMem=  1048576000 cpu:        14.8
 (Enter /mnt/data/applications/G09/g09/l716.exe)
 Dipole        =-6.71979026D-01-1.32467996D+00-2.01829766D-01
 Cartesian Forces:  Max     0.018237394 RMS     0.004879611
 Leave Link  716 at Tue Feb  7 16:27:12 2017, MaxMem=  1048576000 cpu:         0.2
 (Enter /mnt/data/applications/G09/g09/l120.exe)
 SvSCFP did not find density file   528.
 ONIOM: saving gridpoint  1
 ONIOM: restoring gridpoint  3
 ONIOM: calculating energy.
 ONIOM: gridpoint  1 method:  low   system:  model energy:     0.005584296624
 ONIOM: gridpoint  2 method:  high  system:  model energy:  -193.153994403655
 ONIOM: gridpoint  3 method:  low   system:  real  energy:     0.002856370432
 ONIOM: extrapolated energy =    -193.156722329847
 ONIOM: calculating first derivatives.
 ONIOM: calculating electric field derivatives.
 ONIOM: Integrating ONIOM file  4 number   619
 ONIOM: Dipole        =-5.20877929D-01-9.43731368D-01-1.52018717D-01
 ONIOM: Dipole moment (Debye):
    X=    -1.3239    Y=    -2.3987    Z=    -0.3864  Tot=     2.7669
 ONIOM: Integrating ONIOM file  5 number   695
 Leave Link  120 at Tue Feb  7 16:27:12 2017, MaxMem=  1048576000 cpu:         0.0
 (Enter /mnt/data/applications/G09/g09/l716.exe)
 Dipole        =-5.20877929D-01-9.43731368D-01-1.52018717D-01
 -------------------------------------------------------------------
 Center     Atomic                   Forces (Hartrees/Bohr)
 Number     Number              X              Y              Z
 -------------------------------------------------------------------
      1        6           0.006883044    0.010078422    0.001455888
      2        8          -0.002374697   -0.007636684   -0.001094266
      3        6           0.002565243   -0.006254557    0.000839576
      4        1          -0.001368715    0.000784315   -0.000593759
      5        1          -0.001900512    0.000485910   -0.000259477
      6        1          -0.001424384    0.001169751   -0.000144431
      7        6           0.006485935    0.006332228   -0.000425295
      8        1          -0.001683806   -0.001945371   -0.000168317
      9        1          -0.001583646   -0.001848040    0.000036977
     10        6          -0.009983185   -0.002418609    0.000411209
     11        1           0.002084124   -0.001697810   -0.000290178
     12        1           0.001051001    0.001616347   -0.001248501
     13        1           0.001249513    0.001333927    0.001480324
 -------------------------------------------------------------------
 Cartesian Forces:  Max     0.010078422 RMS     0.003550097
 Leave Link  716 at Tue Feb  7 16:27:12 2017, MaxMem=  1048576000 cpu:         0.2
 (Enter /mnt/data/applications/G09/g09/l103.exe)

 GradGradGradGradGradGradGradGradGradGradGradGradGradGradGradGradGradGrad
 Berny optimization.
 Using GEDIIS/GDIIS optimizer.
 FormGI is forming the generalized inverse of G from B-inverse, IUseBI=4.
 Internal  Forces:  Max     0.007965060 RMS     0.001874461
 Search for a local minimum.
 Step number   2 out of a maximum of   64
 All quantities printed in internal units (Hartrees-Bohrs-Radians)
 RMS Force = .18745D-02 SwitMx=.10000D-02 MixMth= 1
 Mixed Optimization -- RFO/linear search
 Update second derivatives using D2CorX and points    1    2
 DE= -8.03D-03 DEPred=-7.46D-03 R= 1.08D+00
 TightC=F SS=  1.41D+00  RLast= 2.17D-01 DXNew= 5.0454D-01 6.5196D-01
 Trust test= 1.08D+00 RLast= 2.17D-01 DXMaxT set to 5.05D-01
 ITU=  1  0
 Use linear search instead of GDIIS.
     Eigenvalues ---    0.00237   0.00237   0.00237   0.00237   0.03923
     Eigenvalues ---    0.05221   0.05513   0.05625   0.06896   0.07339
     Eigenvalues ---    0.09204   0.12789   0.15554   0.16000   0.16000
     Eigenvalues ---    0.16000   0.16000   0.16099   0.22182   0.23846
     Eigenvalues ---    0.25468   0.27877   0.28519   0.28989   0.36692
     Eigenvalues ---    0.37230   0.37230   0.37230   0.37230   0.37230
     Eigenvalues ---    0.37230   0.38521   0.76844
 RFO step:  Lambda=-6.26009081D-04 EMin= 2.36730906D-03
 Quartic linear search produced a step of  0.15118.
 Iteration  1 RMS(Cart)=  0.02860287 RMS(Int)=  0.00059849
 Iteration  2 RMS(Cart)=  0.00073853 RMS(Int)=  0.00007143
 Iteration  3 RMS(Cart)=  0.00000060 RMS(Int)=  0.00007143
 ITry= 1 IFail=0 DXMaxC= 1.03D-01 DCOld= 1.00D+10 DXMaxT= 5.05D-01 DXLimC= 3.00D+00 Rises=F
 Variable       Old X    -DE/DX   Delta X   Delta X   Delta X     New X
                                 (Linear)    (Quad)   (Total)
    R1        2.30766  -0.00797  -0.01064  -0.00327  -0.01390   2.29375
    R2        2.87718   0.00233  -0.00499   0.01332   0.00833   2.88551
    R3        2.89419  -0.00234  -0.00242  -0.00751  -0.00993   2.88426
    R4        2.06700   0.00132   0.00680  -0.00125   0.00555   2.07255
    R5        2.06760   0.00017   0.00689  -0.00487   0.00202   2.06962
    R6        2.06450   0.00094   0.00642  -0.00210   0.00432   2.06882
    R7        2.07247   0.00145   0.00763  -0.00147   0.00616   2.07862
    R8        2.07248   0.00127   0.00763  -0.00204   0.00559   2.07807
    R9        2.88798  -0.00572  -0.00336  -0.02036  -0.02372   2.86426
   R10        2.05972   0.00248   0.00570   0.00320   0.00890   2.06862
   R11        2.06117   0.00218   0.00592   0.00212   0.00804   2.06921
   R12        2.06113   0.00221   0.00591   0.00220   0.00812   2.06925
    A1        2.08588   0.00367  -0.00099   0.01762   0.01660   2.10248
    A2        2.15395   0.00065   0.00841  -0.00370   0.00468   2.15863
    A3        2.04335  -0.00432  -0.00742  -0.01396  -0.02140   2.02194
    A4        1.89668   0.00043  -0.00211   0.00217   0.00000   1.89668
    A5        1.95913   0.00273   0.00733   0.01666   0.02384   1.98297
    A6        1.89778   0.00092  -0.00194   0.00784   0.00573   1.90352
    A7        1.90375  -0.00145  -0.00104  -0.00859  -0.00968   1.89407
    A8        1.89062  -0.00163  -0.00302  -0.01575  -0.01883   1.87179
    A9        1.91461  -0.00113   0.00060  -0.00341  -0.00304   1.91157
   A10        1.89388  -0.00019  -0.00253   0.00010  -0.00258   1.89130
   A11        1.89959  -0.00010  -0.00167   0.00193   0.00004   1.89962
   A12        1.96776  -0.00017   0.00864  -0.00320   0.00530   1.97306
   A13        1.87091  -0.00134  -0.00601  -0.01831  -0.02437   1.84654
   A14        1.91352   0.00081   0.00044   0.00825   0.00869   1.92221
   A15        1.91554   0.00089   0.00074   0.01021   0.01089   1.92643
   A16        1.91276   0.00145   0.00032   0.01263   0.01290   1.92566
   A17        1.93247   0.00038   0.00330  -0.00123   0.00203   1.93449
   A18        1.93152   0.00044   0.00316  -0.00071   0.00240   1.93393
   A19        1.89527  -0.00072  -0.00232  -0.00084  -0.00321   1.89206
   A20        1.89471  -0.00075  -0.00241  -0.00104  -0.00350   1.89121
   A21        1.89631  -0.00085  -0.00216  -0.00899  -0.01120   1.88511
    D1        1.18489  -0.00034  -0.00176   0.04095   0.03918   1.22407
    D2       -2.99115  -0.00013   0.00017   0.04225   0.04235  -2.94880
    D3       -0.86960   0.00085   0.00428   0.05416   0.05849  -0.81111
    D4       -1.95225  -0.00030  -0.00108   0.05242   0.05136  -1.90090
    D5        0.15489  -0.00009   0.00084   0.05373   0.05452   0.20941
    D6        2.27644   0.00089   0.00495   0.06564   0.07066   2.34710
    D7        2.06064   0.00092   0.00521   0.03924   0.04437   2.10501
    D8       -2.19210  -0.00082  -0.00446   0.01859   0.01417  -2.17793
    D9       -0.06244   0.00014   0.00087   0.03081   0.03168  -0.03076
   D10       -1.08559   0.00089   0.00451   0.02733   0.03179  -1.05380
   D11        0.94485  -0.00085  -0.00516   0.00669   0.00160   0.94645
   D12        3.07451   0.00010   0.00017   0.01891   0.01910   3.09361
   D13       -3.12359  -0.00010  -0.00090  -0.01473  -0.01564  -3.13922
   D14       -1.03327   0.00017  -0.00151  -0.00847  -0.00999  -1.04326
   D15        1.07056  -0.00037  -0.00009  -0.02104  -0.02114   1.04942
   D16        1.04768  -0.00032  -0.00355  -0.01853  -0.02212   1.02556
   D17        3.13800  -0.00005  -0.00416  -0.01226  -0.01648   3.12152
   D18       -1.04136  -0.00058  -0.00274  -0.02484  -0.02762  -1.06898
   D19       -1.00295   0.00030   0.00307  -0.00717  -0.00404  -1.00699
   D20        1.08737   0.00057   0.00245  -0.00091   0.00160   1.08897
   D21       -3.09199   0.00003   0.00388  -0.01349  -0.00954  -3.10153
         Item               Value     Threshold  Converged?
[...]
 IRadAn=      0 IRanWt=     -1 IRanGd=            0 ICorTp=0 IEmpDi=  4
 NAtoms=   13 NActive=   10 NUniq=   10 SFac= 1.00D+00 NAtFMM=   60 NAOKFM=F Big=F
 Integral buffers will be    131072 words long.
 Raffenetti 1 integral format.
 Two-electron integral symmetry is turned off.
 Leave Link  301 at Tue Feb  7 16:29:28 2017, MaxMem=  1048576000 cpu:         0.5
 (Enter /mnt/data/applications/G09/g09/l402.exe)
 External calculation of energy and first derivatives.
 Running external command "./sictwo_files/sictwo_g09d01 M"
         input file       "/scratch/Gau-26156.EIn"
         output file      "/scratch/Gau-26156.EOu"
         message file     "/scratch/Gau-26156.EMs"
         fchk file        "/scratch/Gau-26156.EFC"
         mat. el file     "/scratch/Gau-26156.EUF"

---------------------------- SICTWO Version 1.0 STARTED -----------------------------

MM calculations started
MM calculations finished ....
Information recovery

---------------------------- SICTWO Version 1.0 FINISHED -----------------------------

 Recovered energy= 0.466335460630E-02 dipole=     -0.682995075448     -1.262911401030     -0.426478491812
 Energy=    4.663354606E-03 NIter=   0.
 Dipole moment=      -0.682995      -1.262911      -0.426478
 Leave Link  402 at Tue Feb  7 16:29:31 2017, MaxMem=  1048576000 cpu:        18.6
 (Enter /mnt/data/applications/G09/g09/l716.exe)
 Dipole        =-6.82995075D-01-1.26291140D+00-4.26478492D-01
 Cartesian Forces:  Max     0.026477671 RMS     0.006620708
 Leave Link  716 at Tue Feb  7 16:29:31 2017, MaxMem=  1048576000 cpu:         0.2
 (Enter /mnt/data/applications/G09/g09/l120.exe)
 SvSCFP did not find density file   528.
 ONIOM: saving gridpoint  1
 ONIOM: restoring gridpoint  3
 ONIOM: calculating energy.
 ONIOM: gridpoint  1 method:  low   system:  model energy:     0.004663354606
 ONIOM: gridpoint  2 method:  high  system:  model energy:  -193.155128419870
 ONIOM: gridpoint  3 method:  low   system:  real  energy:     0.001777502555
 ONIOM: extrapolated energy =    -193.158014271921
 ONIOM: calculating first derivatives.
 ONIOM: calculating electric field derivatives.
 ONIOM: Integrating ONIOM file  4 number   619
 ONIOM: Dipole        =-5.10438211D-01-9.37597727D-01-3.17008787D-01
 ONIOM: Dipole moment (Debye):
    X=    -1.2974    Y=    -2.3831    Z=    -0.8058  Tot=     2.8305
 ONIOM: Integrating ONIOM file  5 number   695
 Leave Link  120 at Tue Feb  7 16:29:31 2017, MaxMem=  1048576000 cpu:         0.0
 (Enter /mnt/data/applications/G09/g09/l716.exe)
 Dipole        =-5.10438211D-01-9.37597727D-01-3.17008787D-01
 -------------------------------------------------------------------
 Center     Atomic                   Forces (Hartrees/Bohr)
 Number     Number              X              Y              Z
 -------------------------------------------------------------------
      1        6           0.000000191    0.000004551    0.000002746
      2        8          -0.000001032   -0.000004410   -0.000000644
      3        6           0.000001613    0.000000326    0.000002115
      4        1          -0.000000686   -0.000000101    0.000001800
      5        1          -0.000000305   -0.000001173   -0.000000840
      6        1           0.000000115   -0.000000703    0.000001654
      7        6          -0.000001390   -0.000000679    0.000000549
      8        1           0.000000571   -0.000000178   -0.000002498
      9        1          -0.000000048    0.000001019   -0.000000542
     10        6           0.000001224    0.000001349   -0.000001051
     11        1           0.000000337    0.000000169   -0.000002024
     12        1          -0.000000590    0.000000590   -0.000000590
     13        1          -0.000000084   -0.000000675   -0.000000843
 -------------------------------------------------------------------
 Cartesian Forces:  Max     0.000004551 RMS     0.000001494
 Leave Link  716 at Tue Feb  7 16:29:31 2017, MaxMem=  1048576000 cpu:         0.2
 (Enter /mnt/data/applications/G09/g09/l103.exe)

 GradGradGradGradGradGradGradGradGradGradGradGradGradGradGradGradGradGrad
 Berny optimization.
 Using GEDIIS/GDIIS optimizer.
 FormGI is forming the generalized inverse of G from B-inverse, IUseBI=4.
 Internal  Forces:  Max     0.000004395 RMS     0.000000786
 Search for a local minimum.
 Step number  17 out of a maximum of   64
 All quantities printed in internal units (Hartrees-Bohrs-Radians)
 RMS Force = .78592D-06 SwitMx=.10000D-02 MixMth= 2
 Mixed Optimization -- En-DIIS/RFO-DIIS
 Swapping is turned off.
 Update second derivatives using D2CorX and points    8   11   12   13   14
                                                     15   16   17
 DE= -1.69D-07 DEPred=-5.37D-09 R= 3.14D+01
 Trust test= 3.14D+01 RLast= 5.02D-03 DXMaxT set to 2.17D-01
 ITU=  0 -1  0  1  1  1  1  1  0 -1  1  0 -1 -1  1  1  0
     Eigenvalues ---    0.00024   0.00154   0.00242   0.02875   0.03616
     Eigenvalues ---    0.05022   0.05459   0.05496   0.06306   0.06670
     Eigenvalues ---    0.09108   0.12815   0.14949   0.15724   0.15936
     Eigenvalues ---    0.16004   0.16179   0.16865   0.22059   0.24628
     Eigenvalues ---    0.25836   0.28060   0.29924   0.31322   0.35864
     Eigenvalues ---    0.36979   0.37064   0.37174   0.37232   0.37244
     Eigenvalues ---    0.37319   0.39309   0.90840
 En-DIIS/RFO-DIIS IScMMF=        0 using points:    17   16   15   14   13
 RFO step:  Lambda=-5.30282720D-11.
 NNeg= 0 NP= 5 Switch=  2.50D-03 Rises=F DC=  4.57D-06 SmlDif=  1.00D-05
 RMS Error=  0.2071745966D-05 NUsed= 5 EDIIS=F
 DidBck=F Rises=F RFO-DIIS coefs:    1.14439   -0.15255    0.00758    0.00668   -0.00611
 Iteration  1 RMS(Cart)=  0.00008784 RMS(Int)=  0.00000003
 Iteration  2 RMS(Cart)=  0.00000000 RMS(Int)=  0.00000003
 ITry= 1 IFail=0 DXMaxC= 2.42D-04 DCOld= 1.00D+10 DXMaxT= 2.17D-01 DXLimC= 3.00D+00 Rises=F
 Variable       Old X    -DE/DX   Delta X   Delta X   Delta X     New X
                                 (Linear)    (Quad)   (Total)
    R1        2.29642   0.00000   0.00000  -0.00001  -0.00001   2.29641
    R2        2.87737   0.00000   0.00000   0.00000   0.00000   2.87736
    R3        2.89289   0.00000   0.00000   0.00000   0.00000   2.89289
    R4        2.07360   0.00000   0.00000   0.00000   0.00000   2.07360
    R5        2.07360   0.00000   0.00000   0.00000   0.00000   2.07360
    R6        2.06299   0.00000   0.00000   0.00000   0.00000   2.06299
    R7        2.07673   0.00000   0.00000   0.00000   0.00000   2.07672
    R8        2.07684   0.00000   0.00000   0.00000   0.00000   2.07684
    R9        2.86226   0.00000   0.00000   0.00000   0.00001   2.86226
   R10        2.06788   0.00000   0.00000   0.00000   0.00000   2.06788
   R11        2.06912   0.00000   0.00000   0.00000   0.00000   2.06912
   R12        2.06913   0.00000   0.00000   0.00000   0.00000   2.06912
    A1        2.11653   0.00000   0.00000   0.00000   0.00000   2.11654
    A2        2.15628   0.00000   0.00000   0.00000  -0.00001   2.15627
    A3        2.01037   0.00000   0.00000   0.00000   0.00000   2.01038
    A4        1.93083   0.00000   0.00000   0.00000   0.00000   1.93083
    A5        1.93039   0.00000   0.00000   0.00000   0.00000   1.93039
    A6        1.91424   0.00000   0.00000   0.00001   0.00000   1.91424
    A7        1.86461   0.00000  -0.00001  -0.00001  -0.00001   1.86460
    A8        1.91149   0.00000   0.00000   0.00000   0.00000   1.91149
    A9        1.91164   0.00000   0.00001   0.00000   0.00000   1.91164
   A10        1.89819   0.00000   0.00002   0.00000   0.00002   1.89821
   A11        1.89780   0.00000  -0.00001   0.00000  -0.00001   1.89778
   A12        1.97451   0.00000   0.00000   0.00000   0.00000   1.97451
   A13        1.84425   0.00000   0.00000   0.00000   0.00000   1.84424
   A14        1.92228   0.00000   0.00000   0.00001   0.00001   1.92228
   A15        1.92203   0.00000  -0.00001   0.00000  -0.00001   1.92202
   A16        1.92796   0.00000   0.00000   0.00000   0.00000   1.92796
   A17        1.93738   0.00000   0.00000   0.00000   0.00000   1.93738
   A18        1.93733   0.00000   0.00000   0.00000   0.00000   1.93732
   A19        1.88878   0.00000   0.00000   0.00000   0.00000   1.88878
   A20        1.88880   0.00000   0.00000   0.00000   0.00000   1.88881
   A21        1.88182   0.00000   0.00000   0.00000   0.00000   1.88182
    D1        2.11075   0.00000   0.00005   0.00000   0.00004   2.11080
    D2       -2.10995   0.00000   0.00004  -0.00001   0.00003  -2.10992
    D3        0.00035   0.00000   0.00005  -0.00001   0.00004   0.00039
    D4       -1.03093   0.00000   0.00006   0.00000   0.00006  -1.03087
    D5        1.03155   0.00000   0.00005   0.00000   0.00005   1.03160
    D6       -3.14134   0.00000   0.00006   0.00000   0.00006  -3.14128
    D7        2.14591   0.00000   0.00014   0.00003   0.00017   2.14608
    D8       -2.13705   0.00000   0.00014   0.00003   0.00017  -2.13688
    D9        0.00413   0.00000   0.00012   0.00003   0.00015   0.00428
   D10       -0.99559   0.00000   0.00013   0.00002   0.00015  -0.99544
   D11        1.00464   0.00000   0.00013   0.00002   0.00015   1.00479
   D12       -3.13737   0.00000   0.00011   0.00002   0.00013  -3.13724
   D13        3.14122   0.00000   0.00000  -0.00002  -0.00001   3.14121
   D14       -1.04672   0.00000   0.00000  -0.00002  -0.00001  -1.04673
   D15        1.04598   0.00000   0.00000  -0.00002  -0.00001   1.04596
   D16        1.01288   0.00000  -0.00002  -0.00002  -0.00004   1.01284
   D17        3.10813   0.00000  -0.00002  -0.00002  -0.00005   3.10808
   D18       -1.08236   0.00000  -0.00002  -0.00002  -0.00004  -1.08241
   D19       -1.01431   0.00000  -0.00002  -0.00002  -0.00004  -1.01435
   D20        1.08094   0.00000  -0.00002  -0.00002  -0.00004   1.08090
   D21       -3.10955   0.00000  -0.00002  -0.00002  -0.00004  -3.10959
         Item               Value     Threshold  Converged?
 Maximum Force            0.000004     0.000450     YES
 RMS     Force            0.000001     0.000300     YES
 Maximum Displacement     0.000242     0.001800     YES
 RMS     Displacement     0.000088     0.001200     YES
 Predicted change in Energy=-1.114218D-10
 Optimization completed.
    -- Stationary point found.
                           ----------------------------
                           !   Optimized Parameters   !
                           ! (Angstroms and Degrees)  !
 --------------------------                            --------------------------
 ! Name  Definition              Value          Derivative Info.                !
 --------------------------------------------------------------------------------
 ! R1    R(1,2)                  1.2152         -DE/DX =    0.0                 !
 ! R2    R(1,3)                  1.5226         -DE/DX =    0.0                 !
 ! R3    R(1,7)                  1.5308         -DE/DX =    0.0                 !
 ! R4    R(3,4)                  1.0973         -DE/DX =    0.0                 !
 ! R5    R(3,5)                  1.0973         -DE/DX =    0.0                 !
 ! R6    R(3,6)                  1.0917         -DE/DX =    0.0                 !
 ! R7    R(7,8)                  1.099          -DE/DX =    0.0                 !
 ! R8    R(7,9)                  1.099          -DE/DX =    0.0                 !
 ! R9    R(7,10)                 1.5146         -DE/DX =    0.0                 !
 ! R10   R(10,11)                1.0943         -DE/DX =    0.0                 !
 ! R11   R(10,12)                1.0949         -DE/DX =    0.0                 !
 ! R12   R(10,13)                1.0949         -DE/DX =    0.0                 !
 ! A1    A(2,1,3)              121.2685         -DE/DX =    0.0                 !
 ! A2    A(2,1,7)              123.5456         -DE/DX =    0.0                 !
 ! A3    A(3,1,7)              115.186          -DE/DX =    0.0                 !
 ! A4    A(1,3,4)              110.6284         -DE/DX =    0.0                 !
 ! A5    A(1,3,5)              110.6032         -DE/DX =    0.0                 !
 ! A6    A(1,3,6)              109.6777         -DE/DX =    0.0                 !
 ! A7    A(4,3,5)              106.8344         -DE/DX =    0.0                 !
 ! A8    A(4,3,6)              109.5205         -DE/DX =    0.0                 !
 ! A9    A(5,3,6)              109.5288         -DE/DX =    0.0                 !
 ! A10   A(1,7,8)              108.7581         -DE/DX =    0.0                 !
 ! A11   A(1,7,9)              108.7357         -DE/DX =    0.0                 !
 ! A12   A(1,7,10)             113.1311         -DE/DX =    0.0                 !
 ! A13   A(8,7,9)              105.6676         -DE/DX =    0.0                 !
 ! A14   A(8,7,10)             110.1383         -DE/DX =    0.0                 !
 ! A15   A(9,7,10)             110.1241         -DE/DX =    0.0                 !
 ! A16   A(7,10,11)            110.4639         -DE/DX =    0.0                 !
 ! A17   A(7,10,12)            111.004          -DE/DX =    0.0                 !
 ! A18   A(7,10,13)            111.0008         -DE/DX =    0.0                 !
 ! A19   A(11,10,12)           108.2191         -DE/DX =    0.0                 !
 ! A20   A(11,10,13)           108.2205         -DE/DX =    0.0                 !
 ! A21   A(12,10,13)           107.8204         -DE/DX =    0.0                 !
 ! D1    D(2,1,3,4)            120.9373         -DE/DX =    0.0                 !
 ! D2    D(2,1,3,5)           -120.8913         -DE/DX =    0.0                 !
 ! D3    D(2,1,3,6)              0.0201         -DE/DX =    0.0                 !
 ! D4    D(7,1,3,4)            -59.0682         -DE/DX =    0.0                 !
 ! D5    D(7,1,3,5)             59.1032         -DE/DX =    0.0                 !
 ! D6    D(7,1,3,6)           -179.9854         -DE/DX =    0.0                 !
 ! D7    D(2,1,7,8)            122.9515         -DE/DX =    0.0                 !
 ! D8    D(2,1,7,9)           -122.4441         -DE/DX =    0.0                 !
 ! D9    D(2,1,7,10)             0.2366         -DE/DX =    0.0                 !
 ! D10   D(3,1,7,8)            -57.0429         -DE/DX =    0.0                 !
 ! D11   D(3,1,7,9)             57.5616         -DE/DX =    0.0                 !
 ! D12   D(3,1,7,10)          -179.7578         -DE/DX =    0.0                 !
 ! D13   D(1,7,10,11)          179.9786         -DE/DX =    0.0                 !
 ! D14   D(1,7,10,12)          -59.9725         -DE/DX =    0.0                 !
 ! D15   D(1,7,10,13)           59.9302         -DE/DX =    0.0                 !
 ! D16   D(8,7,10,11)           58.0337         -DE/DX =    0.0                 !
 ! D17   D(8,7,10,12)          178.0826         -DE/DX =    0.0                 !
 ! D18   D(8,7,10,13)          -62.0147         -DE/DX =    0.0                 !
 ! D19   D(9,7,10,11)          -58.1157         -DE/DX =    0.0                 !
 ! D20   D(9,7,10,12)           61.9332         -DE/DX =    0.0                 !
 ! D21   D(9,7,10,13)         -178.1642         -DE/DX =    0.0                 !
 --------------------------------------------------------------------------------
 Lowest energy point so far.  Saving SCF results.
 GradGradGradGradGradGradGradGradGradGradGradGradGradGradGradGradGradGrad

 Largest change from initial coordinates is atom    4       0.233 Angstoms.
 Leave Link  103 at Tue Feb  7 16:29:31 2017, MaxMem=  1048576000 cpu:         0.1
 (Enter /mnt/data/applications/G09/g09/l202.exe)
                          Input orientation:                          
 ---------------------------------------------------------------------
 Center     Atomic      Atomic             Coordinates (Angstroms)
 Number     Number       Type             X           Y           Z
 ---------------------------------------------------------------------
      1          6    10061002       -2.353920    0.446097    0.098811
      2          8    10081002       -1.801919    1.471805    0.445166
      3          6    10061003       -3.872352    0.341098    0.056843
      4          1    10011000       -4.215006    0.095201   -0.956170
      5          1    10011000       -4.222045   -0.464372    0.714875
      6          1    10011000       -4.315152    1.287899    0.371929
      7          6    10061003       -1.601544   -0.819000   -0.321854
      8          1    10011000       -1.924551   -1.651657    0.318503
      9          1    10011000       -1.910516   -1.091083   -1.340844
     10          6    10061003       -0.096120   -0.665140   -0.257356
     11          1    10011000        0.396760   -1.592196   -0.565702
     12          1    10011000        0.244758    0.139572   -0.916989
     13          1    10011000        0.230627   -0.425648    0.759876
 ---------------------------------------------------------------------
                    Distance matrix (angstroms):
                    1          2          3          4          5
     1  C    0.000000
     2  O    1.215213   0.000000
     3  C    1.522636   2.390812   0.000000
     4  H    2.167892   3.111554   1.097303   0.000000
     5  H    2.167574   3.111034   1.097303   1.762261   0.000000
     6  H    2.151664   2.521017   1.091688   1.787850   1.787942
     7  C    1.530850   2.424099   2.577947   2.840477   2.840350
     8  H    2.152486   3.128433   2.798834   3.149999   2.616340
     9  H    2.152240   3.125703   2.802405   2.620290   3.156250
    10  C    2.541528   2.823087   3.920608   4.246373   4.243677
    11  H    3.487471   3.904375   4.727632   4.926272   4.923943
    12  H    2.806944   2.796283   4.235511   4.460157   4.793751
    13  H    2.806569   2.798323   4.232799   4.793720   4.453067
                    6          7          8          9         10
     6  H    0.000000
     7  C    3.504858   0.000000
     8  H    3.789304   1.098957   0.000000
     9  H    3.791494   1.099015   1.751534   0.000000
    10  C    4.691545   1.514640   2.155920   2.155785   0.000000
    11  H    5.601448   2.156504   2.484720   2.485052   1.094276
    12  H    4.875730   2.163765   3.072596   2.517811   1.094931
    13  H    4.873485   2.163727   2.518472   3.072511   1.094934
                   11         12         13
    11  H    0.000000
    12  H    1.773564   0.000000
    13  H    1.773581   1.769619   0.000000
 Symmetry turned off by external request.
 Stoichiometry    C4H8O
 Framework group  C1[X(C4H8O)]
 Deg. of freedom    33
 Full point group                 C1      NOp   1
 Rotational constants (GHZ):      9.3873162      3.5947541      2.7310972
 Leave Link  202 at Tue Feb  7 16:29:31 2017, MaxMem=  1048576000 cpu:         0.0
 (Enter /mnt/data/applications/G09/g09/l9999.exe)
 1\1\GINC-KIMIK2087\FOpt\ONIOM(B3LYP/6-31G(d):External='./sictwo_files/
 sictwo_g09d01')\Mixed\C4H8O1\IFUNES\07-Feb-2017\0\\#p opt=nomicro onio
 m(B3LYP/6-31G*:external="./sictwo_files/sictwo_g09d01") geom=connectiv
 ity nosymm scf(maxcyc=100)\\ONIOM(QM:MM) OPT FREQ with SICTWO V1.0\\0,
 1\C,-2.353919985,0.4460970924,0.0988113029\O,-1.8019191839,1.471804553
 9,0.4451659363\C,-3.8723517998,0.3410982802,0.0568428731\H,-4.21500624
 18,0.095200909,-0.9561702249\H,-4.2220446442,-0.4643723335,0.714874541
 9\H,-4.315152389,1.2878990226,0.3719291932\C,-1.6015438526,-0.81900044
 48,-0.3218535168\H,-1.9245506991,-1.6516572629,0.3185027977\H,-1.91051
 58593,-1.0910832643,-1.3408442695\C,-0.0961197642,-0.6651396238,-0.257
 3560938\H,0.3967597997,-1.5921961119,-0.5657015982\H,0.2447577632,0.13
 95721966,-0.9169894191\H,0.2306267661,-0.4256478935,0.7598758372\\Vers
 ion=EM64L-G09RevD.01\HF=0.0046634\RMSD=7.923e-09\RMSF=1.494e-06\Dipole
 =-0.5104382,-0.9375977,-0.3170088\PG=C01 [X(C4H8O1)]\\@


 ABALONE: AN EXPRESSION OF DISBELIEF.
 Job cpu time:       0 days  0 hours 17 minutes 13.6 seconds.
 File lengths (MBytes):  RWF=      5 Int=      0 D2E=      0 Chk=      3 Scr=      1
 Normal termination of Gaussian 09 at Tue Feb  7 16:29:32 2017.
