 Entering Gaussian System, Link 0=g09
 Initial command:
 /mnt/data/applications/G09/g09/l1.exe "/scratch/Gau-22932.inp" -scrdir="/scratch/"
 Entering Link 1 = /mnt/data/applications/G09/g09/l1.exe PID=     22933.
  
 Copyright (c) 1988,1990,1992,1993,1995,1998,2003,2009,2013,
            Gaussian, Inc.  All Rights Reserved.
  
 This is part of the Gaussian(R) 09 program.  It is based on
 the Gaussian(R) 03 system (copyright 2003, Gaussian, Inc.),
 the Gaussian(R) 98 system (copyright 1998, Gaussian, Inc.),
 the Gaussian(R) 94 system (copyright 1995, Gaussian, Inc.),
 the Gaussian 92(TM) system (copyright 1992, Gaussian, Inc.),
 the Gaussian 90(TM) system (copyright 1990, Gaussian, Inc.),
 the Gaussian 88(TM) system (copyright 1988, Gaussian, Inc.),
 the Gaussian 86(TM) system (copyright 1986, Carnegie Mellon
 University), and the Gaussian 82(TM) system (copyright 1983,
 Carnegie Mellon University). Gaussian is a federally registered
 trademark of Gaussian, Inc.
  
 This software contains proprietary and confidential information,
 including trade secrets, belonging to Gaussian, Inc.
  
 This software is provided under written license and may be
 used, copied, transmitted, or stored only in accord with that
 written license.
  
 The following legend is applicable only to US Government
 contracts under FAR:
  
                    RESTRICTED RIGHTS LEGEND
  
 Use, reproduction and disclosure by the US Government is
 subject to restrictions as set forth in subparagraphs (a)
 and (c) of the Commercial Computer Software - Restricted
 Rights clause in FAR 52.227-19.
  
 Gaussian, Inc.
 340 Quinnipiac St., Bldg. 40, Wallingford CT 06492
  
  
 ---------------------------------------------------------------
 Warning -- This program may not be used in any manner that
 competes with the business of Gaussian, Inc. or will provide
 assistance to any competitor of Gaussian, Inc.  The licensee
 of this program is prohibited from giving any competitor of
 Gaussian, Inc. access to this program.  By using this program,
 the user acknowledges that Gaussian, Inc. is engaged in the
 business of creating and licensing software in the field of
 computational chemistry and represents and warrants to the
 licensee that it is not a competitor of Gaussian, Inc. and that
 it will not use this program in any manner prohibited above.
 ---------------------------------------------------------------
  

 Cite this work as:
 Gaussian 09, Revision D.01,
 M. J. Frisch, G. W. Trucks, H. B. Schlegel, G. E. Scuseria, 
 M. A. Robb, J. R. Cheeseman, G. Scalmani, V. Barone, B. Mennucci, 
 G. A. Petersson, H. Nakatsuji, M. Caricato, X. Li, H. P. Hratchian, 
 A. F. Izmaylov, J. Bloino, G. Zheng, J. L. Sonnenberg, M. Hada, 
 M. Ehara, K. Toyota, R. Fukuda, J. Hasegawa, M. Ishida, T. Nakajima, 
 Y. Honda, O. Kitao, H. Nakai, T. Vreven, J. A. Montgomery, Jr., 
 J. E. Peralta, F. Ogliaro, M. Bearpark, J. J. Heyd, E. Brothers, 
 K. N. Kudin, V. N. Staroverov, T. Keith, R. Kobayashi, J. Normand, 
 K. Raghavachari, A. Rendell, J. C. Burant, S. S. Iyengar, J. Tomasi, 
 M. Cossi, N. Rega, J. M. Millam, M. Klene, J. E. Knox, J. B. Cross, 
 V. Bakken, C. Adamo, J. Jaramillo, R. Gomperts, R. E. Stratmann, 
 O. Yazyev, A. J. Austin, R. Cammi, C. Pomelli, J. W. Ochterski, 
 R. L. Martin, K. Morokuma, V. G. Zakrzewski, G. A. Voth, 
 P. Salvador, J. J. Dannenberg, S. Dapprich, A. D. Daniels, 
 O. Farkas, J. B. Foresman, J. V. Ortiz, J. Cioslowski, 
 and D. J. Fox, Gaussian, Inc., Wallingford CT, 2013.
 
 ******************************************
 Gaussian 09:  EM64L-G09RevD.01 24-Apr-2013
                10-Feb-2017 
 ******************************************
 %nprocshared=8
 Will use up to    8 processors via shared memory.
 %mem=8000MB
 %chk=A_5_freq
 ----------------------------------------------------------------------
 #p freq oniom(B3LYP/6-31G*:external="./sictwo_files/sictwo_g09d01") ge
 om=connectivity nosymm scf(maxcyc=100)
 ----------------------------------------------------------------------
 1/10=4,18=1000020,30=1,38=1,52=2,57=2/1,3;
 2/9=110,12=2,15=1,17=6,18=5,40=1/2;
 1/10=4,18=1000020,30=1,38=1,52=2,53=3172/20;
 3/11=9,16=1,25=1,30=1,41=9900000,43=2,71=2,140=1/1;
 4/20=17,22=2,23=100,24=3,113=1,114=1/2;
 6/7=2,8=2,9=2,10=2/1;
 7/7=1,25=1,30=1,33=-1,44=-1/16;
 1/10=4,18=1000020,30=1,52=2,53=2032/20;
 3/5=1,6=6,7=1,11=2,16=1,25=1,30=1,71=2,74=-5,140=1/1,2,3;
 4//1;
 5/5=2,7=100,38=5,98=1/2;
 8/6=4,10=90,11=11/1;
 11/6=1,8=1,9=11,15=111,16=1,31=1/1,2,10;
 10/6=1,31=1/2;
 6/7=2,8=2,9=2,10=2,18=1,28=1/1;
 7/7=1,10=1,25=1,30=1,33=-1/1,2,3,16;
 1/10=4,18=1000020,30=1,52=2,53=1022/20;
 3/11=9,16=1,25=1,30=1,41=9900000,43=2,71=2,140=1/1;
 4/20=17,22=2,23=100,24=3,113=1,114=2/2;
 6/7=2,8=2,9=2,10=2/1;
 7/7=1,25=1,30=1,33=-1,44=-1/16;
 1/10=4,18=1000020,30=1,52=2,53=3016/20;
 7/8=1,9=1,25=1,44=-1/16;
 1/10=4,18=1000020,30=1,52=2/3;
 99//99;
 Leave Link    1 at Fri Feb 10 10:36:38 2017, MaxMem=  1048576000 cpu:         0.7
 (Enter /mnt/data/applications/G09/g09/l101.exe)
 ONIOM: restoring gridpoint  3 on chk file.
 --------------------------------------
 ONIOM(QM:MM) OPT FREQ with SICTWO V1.0
 --------------------------------------
 Symbolic Z-matrix:
 Charge =  0 Multiplicity = 1 for low   level calculation on real  system.
 Charge =  0 Multiplicity = 1 for high  level calculation on model system.
 Charge =  0 Multiplicity = 1 for low   level calculation on model system.
 C-C_3                0     0.44534  -2.95547   0.       H 
 H-H_                 0     0.802    -3.96428   0.       H 
 H-H_                 0     0.80202  -2.45107  -0.87365  H 
 H-H_                 0    -0.62466  -2.95545   0.       H 
 C-C_3                0     0.95869  -2.22951   1.2574   L    H-H_     1     0.        0. 
 C-C_3                0     2.49869  -2.22955   1.25742  L 
 H-H_                 0     2.85537  -1.72684   0.3828   L 
 H-H_                 0     2.85536  -1.72348   2.1301   L 
 H-H_                 0     2.85532  -3.23837   1.25937  L 
 C-C_3                0     0.44539  -0.77757   1.25739  L 
 H-H_                 0     0.80191  -0.27323   2.13114  L 
 H-H_                 0     0.80221  -0.2731    0.38384  L 
 H-H_                 0    -0.62461  -0.77757   1.25721  L 
 C-C_3                0     0.44532  -2.95545   2.51481  L 
 H-H_                 0     0.80213  -2.45115   3.38846  L 
 H-H_                 0    -0.62468  -2.95528   2.51488  L 
 H-H_                 0     0.80183  -3.96431   2.51474  L 
 
 NAtoms=     17 NQM=        5 NQMF=       0 NMMI=      0 NMMIF=      0
                NMic=      12 NMicF=      0.
                    Isotopes and Nuclear Properties:
 (Nuclear quadrupole moments (NQMom) in fm**2, nuclear magnetic moments (NMagM)
  in nuclear magnetons)

  Atom         1           2           3           4           5           6           7           8           9          10
 IAtWgt=          12           1           1           1          12          12           1           1           1          12
 AtmWgt=  12.0000000   1.0078250   1.0078250   1.0078250  12.0000000  12.0000000   1.0078250   1.0078250   1.0078250  12.0000000
 NucSpn=           0           1           1           1           0           0           1           1           1           0
 AtZEff=   0.0000000   0.0000000   0.0000000   0.0000000   0.0000000   0.0000000   0.0000000   0.0000000   0.0000000   0.0000000
 NQMom=    0.0000000   0.0000000   0.0000000   0.0000000   0.0000000   0.0000000   0.0000000   0.0000000   0.0000000   0.0000000
 NMagM=    0.0000000   2.7928460   2.7928460   2.7928460   0.0000000   0.0000000   2.7928460   2.7928460   2.7928460   0.0000000
 AtZNuc=   6.0000000   1.0000000   1.0000000   1.0000000   6.0000000   6.0000000   1.0000000   1.0000000   1.0000000   6.0000000

  Atom        11          12          13          14          15          16          17
 IAtWgt=           1           1           1          12           1           1           1
 AtmWgt=   1.0078250   1.0078250   1.0078250  12.0000000   1.0078250   1.0078250   1.0078250
 NucSpn=           1           1           1           0           1           1           1
 AtZEff=   0.0000000   0.0000000   0.0000000   0.0000000   0.0000000   0.0000000   0.0000000
 NQMom=    0.0000000   0.0000000   0.0000000   0.0000000   0.0000000   0.0000000   0.0000000
 NMagM=    2.7928460   2.7928460   2.7928460   0.0000000   2.7928460   2.7928460   2.7928460
 AtZNuc=   1.0000000   1.0000000   1.0000000   6.0000000   1.0000000   1.0000000   1.0000000
 Leave Link  101 at Fri Feb 10 10:36:38 2017, MaxMem=  1048576000 cpu:         3.0
 (Enter /mnt/data/applications/G09/g09/l103.exe)

 GradGradGradGradGradGradGradGradGradGradGradGradGradGradGradGradGradGrad
 Berny optimization.
 Initialization pass.
                           ----------------------------
                           !    Initial Parameters    !
                           ! (Angstroms and Degrees)  !
 --------------------------                            --------------------------
 ! Name  Definition              Value          Derivative Info.                !
 --------------------------------------------------------------------------------
 ! R1    R(1,2)                  1.07           calculate D2E/DX2 analytically  !
 ! R2    R(1,3)                  1.07           calculate D2E/DX2 analytically  !
 ! R3    R(1,4)                  1.07           calculate D2E/DX2 analytically  !
 ! R4    R(1,5)                  1.54           calculate D2E/DX2 analytically  !
 ! A1    A(2,1,3)              109.4712         calculate D2E/DX2 analytically  !
 ! A2    A(2,1,4)              109.4712         calculate D2E/DX2 analytically  !
 ! A3    A(2,1,5)              109.4712         calculate D2E/DX2 analytically  !
 ! A4    A(3,1,4)              109.4712         calculate D2E/DX2 analytically  !
 ! A5    A(3,1,5)              109.4713         calculate D2E/DX2 analytically  !
 ! A6    A(4,1,5)              109.4712         calculate D2E/DX2 analytically  !
 ! D1    D(2,1,4,3)           -120.0            calculate D2E/DX2 analytically  !
 ! D2    D(2,1,5,3)            120.0            calculate D2E/DX2 analytically  !
 ! D3    D(2,1,5,4)           -120.0            calculate D2E/DX2 analytically  !
 ! D4    D(3,1,5,4)            120.0            calculate D2E/DX2 analytically  !
 --------------------------------------------------------------------------------
 Trust Radius=3.00D-01 FncErr=1.00D-07 GrdErr=1.00D-07
 Number of steps in this run=      2 maximum allowed number of steps=      2.
 GradGradGradGradGradGradGradGradGradGradGradGradGradGradGradGradGradGrad

 Leave Link  103 at Fri Feb 10 10:36:39 2017, MaxMem=  1048576000 cpu:         0.1
 (Enter /mnt/data/applications/G09/g09/l202.exe)
                          Input orientation:                          
 ---------------------------------------------------------------------
 Center     Atomic      Atomic             Coordinates (Angstroms)
 Number     Number       Type             X           Y           Z
 ---------------------------------------------------------------------
      1          6    10061003        0.445344   -2.955466    0.000000
      2          1    10011000        0.801999   -3.964276    0.000000
      3          1    10011000        0.802017   -2.451067   -0.873652
      4          1    10011000       -0.624656   -2.955452    0.000000
      5          6    10061003        0.958686   -2.229509    1.257405
      6          6    10061003        2.498686   -2.229553    1.257419
      7          1    10011000        2.855375   -1.726844    0.382800
      8          1    10011000        2.855359   -1.723478    2.130100
      9          1    10011000        2.855325   -3.238366    1.259365
     10          6    10061003        0.445393   -0.777569    1.257391
     11          1    10011000        0.801911   -0.273231    2.131141
     12          1    10011000        0.802208   -0.273102    0.383838
     13          1    10011000       -0.624607   -0.777569    1.257209
     14          6    10061003        0.445322   -2.955450    2.514810
     15          1    10011000        0.802127   -2.451145    3.388461
     16          1    10011000       -0.624678   -2.955280    2.514881
     17          1    10011000        0.801828   -3.964312    2.514738
 ---------------------------------------------------------------------
                    Distance matrix (angstroms):
                    1          2          3          4          5
     1  C    0.000000
     2  H    1.070000   0.000000
     3  H    1.070000   1.747302   0.000000
     4  H    1.070000   1.747303   1.747303   0.000000
     5  C    1.540000   2.148263   2.148263   2.148263   0.000000
     6  C    2.514809   2.732968   2.732987   3.444314   1.540000
     7  H    2.732086   3.060880   2.513851   3.710340   2.148263
     8  H    3.444313   3.711441   3.710542   4.262111   2.148263
     9  H    2.733869   2.515769   3.063605   3.711645   2.148263
    10  C    2.514809   3.444314   2.732969   2.732986   1.540000
    11  H    3.444311   4.262109   3.711030   3.710952   2.148259
    12  H    2.733086   3.711077   2.514918   3.062397   2.148286
    13  H    2.732875   3.710913   3.062094   2.514707   2.148243
    14  C    2.514810   2.732986   3.444315   2.732969   1.540000
    15  H    3.444314   3.710961   4.262112   3.711024   2.148263
    16  H    2.733052   3.062369   3.711043   2.514881   2.148263
    17  H    2.732904   2.514738   3.710943   3.062118   2.148263
                    6          7          8          9         10
     6  C    0.000000
     7  H    1.070000   0.000000
     8  H    1.070000   1.747303   0.000000
     9  H    1.070000   1.747303   1.747303   0.000000
    10  C    2.514810   2.733870   2.732087   3.444314   0.000000
    11  H    2.733062   3.063723   2.513934   3.710597   1.070000
    12  H    2.732925   2.515722   3.060792   3.711419   1.070000
    13  H    3.444302   3.711601   3.710370   4.262095   1.070000
    14  C    2.514809   3.444313   2.733869   2.732087   2.514809
    15  H    2.732903   3.711393   2.515698   3.060782   2.733052
    16  H    3.444314   4.262111   3.711611   3.710375   2.732903
    17  H    2.733052   3.710590   3.063703   2.513923   3.444314
                   11         12         13         14         15
    11  H    0.000000
    12  H    1.747303   0.000000
    13  H    1.747303   1.747303   0.000000
    14  C    2.732884   3.444329   2.733033   0.000000
    15  H    2.514789   3.711015   3.062460   1.070000   0.000000
    16  H    3.061993   3.710988   2.514789   1.070000   1.747303
    17  H    3.710961   4.262132   3.710988   1.070000   1.747303
                   16         17
    16  H    0.000000
    17  H    1.747303   0.000000
 Symmetry turned off by external request.
 This structure is nearly, but not quite of a higher symmetry.
 Consider Symm=Loose if the higher symmetry is desired.
 This structure is nearly, but not quite of a higher symmetry.
 Consider Symm=Loose if the higher symmetry is desired.
 Stoichiometry    C5H12
 Framework group  C1[X(C5H12)]
 Deg. of freedom    45
 Full point group                 C1      NOp   1
 Rotational constants (GHZ):      4.4684131      4.4684119      4.4684101
 Leave Link  202 at Fri Feb 10 10:36:39 2017, MaxMem=  1048576000 cpu:         0.0
 (Enter /mnt/data/applications/G09/g09/l120.exe)
 ONIOM: Cut between C /H     5 and C     1 factor= 0.723886 0.723886
 ONIOM: saving gridpoint 17
 ONIOM: restoring gridpoint  3 on chk file.
 ONIOM: generating point  3 -- low level on real system.
 Leave Link  120 at Fri Feb 10 10:36:39 2017, MaxMem=  1048576000 cpu:         0.0
 (Enter /mnt/data/applications/G09/g09/l301.exe)
 Standard basis: STO-3G (5D, 7F)
 Ernie: Thresh=  0.10000D-02 Tol=  0.10000D-05 Strict=F.
    37 basis functions,   111 primitive gaussians,    37 cartesian basis functions
    21 alpha electrons       21 beta electrons
       nuclear repulsion energy       199.6214394894 Hartrees.
 IExCor=    0 DFT=F Ex=HF Corr=None ExCW=0 ScaHFX=  1.000000
 ScaDFX=  1.000000  1.000000  1.000000  1.000000 ScalE2=  1.000000  1.000000
 IRadAn=      0 IRanWt=     -1 IRanGd=            0 ICorTp=0 IEmpDi=  4
 NAtoms=   17 NActive=   17 NUniq=   17 SFac= 1.00D+00 NAtFMM=   60 NAOKFM=F Big=F
 Integral buffers will be    131072 words long.
 Raffenetti 1 integral format.
 Two-electron integral symmetry is turned off.
 Leave Link  301 at Fri Feb 10 10:36:39 2017, MaxMem=  1048576000 cpu:         0.4
 (Enter /mnt/data/applications/G09/g09/l402.exe)
 External calculation of energy, first and second derivatives.
 Running external command "./sictwo_files/sictwo_g09d01 R"
         input file       "/scratch/Gau-22933.EIn"
         output file      "/scratch/Gau-22933.EOu"
         message file     "/scratch/Gau-22933.EMs"
         fchk file        "/scratch/Gau-22933.EFC"
         mat. el file     "/scratch/Gau-22933.EUF"

---------------------------- SICTWO Version 1.0 STARTED -----------------------------

MM calculations started
MM calculations finished ....
Information recovery

---------------------------- SICTWO Version 1.0 FINISHED -----------------------------

 Recovered energy= 0.192798629783E-01 dipole=      0.000000000000      0.000000000000      0.000000000000
 Energy=    1.927986298E-02 NIter=   0.
 Dipole moment=       0.000000       0.000000       0.000000
 Leave Link  402 at Fri Feb 10 10:36:42 2017, MaxMem=  1048576000 cpu:        21.0
 (Enter /mnt/data/applications/G09/g09/l601.exe)
 Leave Link  601 at Fri Feb 10 10:36:42 2017, MaxMem=  1048576000 cpu:         0.2
 (Enter /mnt/data/applications/G09/g09/l716.exe)
 Dipole        = 0.00000000D+00 0.00000000D+00 0.00000000D+00
 Cartesian Forces:  Max     0.023681466 RMS     0.010133664
 Leave Link  716 at Fri Feb 10 10:36:42 2017, MaxMem=  1048576000 cpu:         0.2
 (Enter /mnt/data/applications/G09/g09/l120.exe)
 SvSCFP did not find density file   528.
 ONIOM: saving gridpoint  3
 ONIOM: restoring gridpoint 17
 ONIOM: restoring gridpoint  2 on chk file.
 ONIOM: generating point  2 -- high level on model system.
 Leave Link  120 at Fri Feb 10 10:36:42 2017, MaxMem=  1048576000 cpu:         0.0
 (Enter /mnt/data/applications/G09/g09/l301.exe)
 Standard basis: 6-31G(d) (6D, 7F)
 Ernie: Thresh=  0.10000D-02 Tol=  0.10000D-05 Strict=F.
    23 basis functions,    44 primitive gaussians,    23 cartesian basis functions
     5 alpha electrons        5 beta electrons
       nuclear repulsion energy        13.5485935903 Hartrees.
 IExCor=  402 DFT=T Ex+Corr=B3LYP ExCW=0 ScaHFX=  0.200000
 ScaDFX=  0.800000  0.720000  1.000000  0.810000 ScalE2=  1.000000  1.000000
 IRadAn=      0 IRanWt=     -1 IRanGd=            0 ICorTp=0 IEmpDi=  4
 NAtoms=   17 NActive=    5 NUniq=    5 SFac= 1.00D+00 NAtFMM=   60 NAOKFM=F Big=F
 Integral buffers will be    131072 words long.
 Raffenetti 2 integral format.
 Two-electron integral symmetry is turned off.
 Leave Link  301 at Fri Feb 10 10:36:42 2017, MaxMem=  1048576000 cpu:         0.4
 (Enter /mnt/data/applications/G09/g09/l302.exe)
 NPDir=0 NMtPBC=     1 NCelOv=     1 NCel=       1 NClECP=     1 NCelD=      1
         NCelK=      1 NCelE2=     1 NClLst=     1 CellRange=     0.0.
 One-electron integrals computed using PRISM.
 NBasis=    23 RedAO= T EigKep=  1.72D-02  NBF=    23
 NBsUse=    23 1.00D-06 EigRej= -1.00D+00 NBFU=    23
 Precomputing XC quadrature grid using
 IXCGrd= 4 IRadAn=           0 IRanWt=          -1 IRanGd=           0 AccXCQ= 0.00D+00.
 Generated NRdTot=       0 NPtTot=           0 NUsed=           0 NTot=          32
 NSgBfM=    23    23    23    23    23 MxSgAt=     5 MxSgA2=     5.
 Leave Link  302 at Fri Feb 10 10:36:43 2017, MaxMem=  1048576000 cpu:         1.7
 (Enter /mnt/data/applications/G09/g09/l303.exe)
 DipDrv:  MaxL=1.
 Leave Link  303 at Fri Feb 10 10:36:43 2017, MaxMem=  1048576000 cpu:         0.3
 (Enter /mnt/data/applications/G09/g09/l401.exe)
 ExpMin= 1.61D-01 ExpMax= 3.05D+03 ExpMxC= 4.57D+02 IAcc=1 IRadAn=         1 AccDes= 0.00D+00
 Harris functional with IExCor=  402 and IRadAn=       1 diagonalized for initial guess.
 HarFok:  IExCor=  402 AccDes= 0.00D+00 IRadAn=         1 IDoV= 1 UseB2=F ITyADJ=14
 ICtDFT=  3500011 ScaDFX=  1.000000  1.000000  1.000000  1.000000
 FoFCou: FMM=F IPFlag=           0 FMFlag=      100000 FMFlg1=           0
         NFxFlg=           0 DoJE=T BraDBF=F KetDBF=T FulRan=T
         wScrn=  0.000000 ICntrl=     500 IOpCl=  0 I1Cent=   200000004 NGrid=           0
         NMat0=    1 NMatS0=      1 NMatT0=    0 NMatD0=    1 NMtDS0=    0 NMtDT0=    0
 Symmetry not used in FoFCou.
 Harris En= -40.5645515994377    
 JPrj=0 DoOrth=F DoCkMO=F.
 Leave Link  401 at Fri Feb 10 10:36:43 2017, MaxMem=  1048576000 cpu:         1.4
 (Enter /mnt/data/applications/G09/g09/l502.exe)
 Closed shell SCF:
 Using DIIS extrapolation, IDIIS=  1040.
 Two-electron integral symmetry not used.
 Keep R1 ints in memory in canonical form, NReq=912373.
 IVT=       13969 IEndB=       13969 NGot=  1048576000 MDV=  1048523806
 LenX=  1048523806 LenY=  1048522836
 Requested convergence on RMS density matrix=1.00D-08 within 100 cycles.
 Requested convergence on MAX density matrix=1.00D-06.
 Requested convergence on             energy=1.00D-06.
 No special actions if energy rises.
 FoFCou: FMM=F IPFlag=           0 FMFlag=           0 FMFlg1=           0
         NFxFlg=           0 DoJE=F BraDBF=F KetDBF=F FulRan=T
         wScrn=  0.000000 ICntrl=     600 IOpCl=  0 I1Cent=           0 NGrid=           0
         NMat0=    1 NMatS0=    276 NMatT0=    0 NMatD0=    1 NMtDS0=    0 NMtDT0=    0
 Symmetry not used in FoFCou.
 Integral accuracy reduced to 1.0D-05 until final iterations.

 Cycle   1  Pass 0  IDiag  1:
 E= -40.4235783124349    
 DIIS: error= 6.90D-02 at cycle   1 NSaved=   1.
 NSaved= 1 IEnMin= 1 EnMin= -40.4235783124349     IErMin= 1 ErrMin= 6.90D-02
 ErrMax= 6.90D-02  0.00D+00 EMaxC= 1.00D-01 BMatC= 8.65D-02 BMatP= 8.65D-02
 IDIUse=3 WtCom= 3.10D-01 WtEn= 6.90D-01
 Coeff-Com:  0.100D+01
 Coeff-En:   0.100D+01
 Coeff:      0.100D+01
 Gap=     0.431 Goal=   None    Shift=    0.000
 GapD=    0.431 DampG=2.000 DampE=0.500 DampFc=1.0000 IDamp=-1.
 RMSDP=2.27D-02 MaxDP=1.59D-01              OVMax= 1.97D-01

 Cycle   2  Pass 0  IDiag  1:
 E= -40.4040709927711     Delta-E=        0.019507319664 Rises=F Damp=F
 DIIS: error= 7.34D-02 at cycle   2 NSaved=   2.
 NSaved= 2 IEnMin= 1 EnMin= -40.4235783124349     IErMin= 1 ErrMin= 6.90D-02
 ErrMax= 7.34D-02  0.00D+00 EMaxC= 1.00D-01 BMatC= 1.04D-01 BMatP= 8.65D-02
 IDIUse=2 WtCom= 0.00D+00 WtEn= 1.00D+00
 Coeff-En:   0.545D+00 0.455D+00
 Coeff:      0.545D+00 0.455D+00
 Gap=     0.497 Goal=   None    Shift=    0.000
 RMSDP=1.15D-02 MaxDP=7.19D-02 DE= 1.95D-02 OVMax= 9.85D-02

 Cycle   3  Pass 0  IDiag  1:
 E= -40.5168269274465     Delta-E=       -0.112755934675 Rises=F Damp=F
 DIIS: error= 3.26D-03 at cycle   3 NSaved=   3.
 NSaved= 3 IEnMin= 3 EnMin= -40.5168269274465     IErMin= 3 ErrMin= 3.26D-03
 ErrMax= 3.26D-03  0.00D+00 EMaxC= 1.00D-01 BMatC= 2.18D-04 BMatP= 8.65D-02
 IDIUse=3 WtCom= 9.67D-01 WtEn= 3.26D-02
 Coeff-Com:  0.133D-01-0.346D-01 0.102D+01
 Coeff-En:   0.000D+00 0.000D+00 0.100D+01
 Coeff:      0.129D-01-0.334D-01 0.102D+01
 Gap=     0.506 Goal=   None    Shift=    0.000
 RMSDP=4.54D-04 MaxDP=3.64D-03 DE=-1.13D-01 OVMax= 4.10D-03

 Cycle   4  Pass 0  IDiag  1:
 E= -40.5170391785415     Delta-E=       -0.000212251095 Rises=F Damp=F
 DIIS: error= 5.20D-05 at cycle   4 NSaved=   4.
 NSaved= 4 IEnMin= 4 EnMin= -40.5170391785415     IErMin= 4 ErrMin= 5.20D-05
 ErrMax= 5.20D-05  0.00D+00 EMaxC= 1.00D-01 BMatC= 6.72D-08 BMatP= 2.18D-04
 IDIUse=1 WtCom= 1.00D+00 WtEn= 0.00D+00
 Coeff-Com:  0.148D-02-0.151D-02 0.498D-01 0.950D+00
 Coeff:      0.148D-02-0.151D-02 0.498D-01 0.950D+00
 Gap=     0.507 Goal=   None    Shift=    0.000
 RMSDP=9.42D-06 MaxDP=4.02D-05 DE=-2.12D-04 OVMax= 9.94D-05

 Initial convergence to 1.0D-05 achieved.  Increase integral accuracy.
 Cycle   5  Pass 1  IDiag  1:
 E= -40.5170480118551     Delta-E=       -0.000008833314 Rises=F Damp=F
 DIIS: error= 8.47D-06 at cycle   1 NSaved=   1.
 NSaved= 1 IEnMin= 1 EnMin= -40.5170480118551     IErMin= 1 ErrMin= 8.47D-06
 ErrMax= 8.47D-06  0.00D+00 EMaxC= 1.00D-01 BMatC= 3.03D-09 BMatP= 3.03D-09
 IDIUse=1 WtCom= 1.00D+00 WtEn= 0.00D+00
 Coeff-Com:  0.100D+01
 Coeff:      0.100D+01
 Gap=     0.507 Goal=   None    Shift=    0.000
 RMSDP=9.42D-06 MaxDP=4.02D-05 DE=-8.83D-06 OVMax= 3.97D-05

 Cycle   6  Pass 1  IDiag  1:
 E= -40.5170480128290     Delta-E=       -0.000000000974 Rises=F Damp=F
 DIIS: error= 9.58D-06 at cycle   2 NSaved=   2.
 NSaved= 2 IEnMin= 2 EnMin= -40.5170480128290     IErMin= 1 ErrMin= 8.47D-06
 ErrMax= 9.58D-06  0.00D+00 EMaxC= 1.00D-01 BMatC= 2.06D-09 BMatP= 3.03D-09
 IDIUse=1 WtCom= 1.00D+00 WtEn= 0.00D+00
 Coeff-Com:  0.449D+00 0.551D+00
 Coeff:      0.449D+00 0.551D+00
 Gap=     0.507 Goal=   None    Shift=    0.000
 RMSDP=1.76D-06 MaxDP=1.36D-05 DE=-9.74D-10 OVMax= 1.91D-05

 Cycle   7  Pass 1  IDiag  1:
 E= -40.5170480148510     Delta-E=       -0.000000002022 Rises=F Damp=F
 DIIS: error= 1.78D-06 at cycle   3 NSaved=   3.
 NSaved= 3 IEnMin= 3 EnMin= -40.5170480148510     IErMin= 3 ErrMin= 1.78D-06
 ErrMax= 1.78D-06  0.00D+00 EMaxC= 1.00D-01 BMatC= 7.30D-11 BMatP= 2.06D-09
 IDIUse=1 WtCom= 1.00D+00 WtEn= 0.00D+00
 Coeff-Com:  0.141D+00 0.238D+00 0.622D+00
 Coeff:      0.141D+00 0.238D+00 0.622D+00
 Gap=     0.507 Goal=   None    Shift=    0.000
 RMSDP=3.04D-07 MaxDP=2.09D-06 DE=-2.02D-09 OVMax= 2.80D-06

 Cycle   8  Pass 1  IDiag  1:
 E= -40.5170480149247     Delta-E=       -0.000000000074 Rises=F Damp=F
 DIIS: error= 5.13D-08 at cycle   4 NSaved=   4.
 NSaved= 4 IEnMin= 4 EnMin= -40.5170480149247     IErMin= 4 ErrMin= 5.13D-08
 ErrMax= 5.13D-08  0.00D+00 EMaxC= 1.00D-01 BMatC= 9.20D-14 BMatP= 7.30D-11
 IDIUse=1 WtCom= 1.00D+00 WtEn= 0.00D+00
 Coeff-Com: -0.721D-02-0.354D-02 0.924D-02 0.100D+01
 Coeff:     -0.721D-02-0.354D-02 0.924D-02 0.100D+01
 Gap=     0.507 Goal=   None    Shift=    0.000
 RMSDP=1.79D-08 MaxDP=8.56D-08 DE=-7.37D-11 OVMax= 1.56D-07

 Cycle   9  Pass 1  IDiag  1:
 E= -40.5170480149249     Delta-E=        0.000000000000 Rises=F Damp=F
 DIIS: error= 4.91D-09 at cycle   5 NSaved=   5.
 NSaved= 5 IEnMin= 5 EnMin= -40.5170480149249     IErMin= 5 ErrMin= 4.91D-09
 ErrMax= 4.91D-09  0.00D+00 EMaxC= 1.00D-01 BMatC= 5.42D-16 BMatP= 9.20D-14
 IDIUse=1 WtCom= 1.00D+00 WtEn= 0.00D+00
 Coeff-Com: -0.143D-02-0.188D-02-0.279D-02 0.902D-01 0.916D+00
 Coeff:     -0.143D-02-0.188D-02-0.279D-02 0.902D-01 0.916D+00
 Gap=     0.507 Goal=   None    Shift=    0.000
 RMSDP=1.50D-09 MaxDP=1.06D-08 DE=-1.56D-13 OVMax= 1.80D-08

 SCF Done:  E(RB3LYP) =  -40.5170480149     A.U. after    9 cycles
            NFock=  9  Conv=0.15D-08     -V/T= 2.0095
 KE= 4.013675281510D+01 PE=-1.201797828572D+02 EE= 2.597738843683D+01
 Leave Link  502 at Fri Feb 10 10:36:43 2017, MaxMem=  1048576000 cpu:         2.8
 (Enter /mnt/data/applications/G09/g09/l801.exe)
 DoSCS=F DFT=T ScalE2(SS,OS)=  1.000000  1.000000
 Range of M.O.s used for correlation:     1    23
 NBasis=    23 NAE=     5 NBE=     5 NFC=     0 NFV=     0
 NROrb=     23 NOA=     5 NOB=     5 NVA=    18 NVB=    18
 Leave Link  801 at Fri Feb 10 10:36:44 2017, MaxMem=  1048576000 cpu:         0.3
 (Enter /mnt/data/applications/G09/g09/l1101.exe)
 Using compressed storage, NAtomX=     5.
 Will process      6 centers per pass.
 Leave Link 1101 at Fri Feb 10 10:36:44 2017, MaxMem=  1048576000 cpu:         1.6
 (Enter /mnt/data/applications/G09/g09/l1102.exe)
 Symmetrizing basis deriv contribution to polar:
 IMax=3 JMax=2 DiffMx= 0.00D+00
 Leave Link 1102 at Fri Feb 10 10:36:44 2017, MaxMem=  1048576000 cpu:         0.3
 (Enter /mnt/data/applications/G09/g09/l1110.exe)
 Forming Gx(P) for the SCF density, NAtomX=     5.
 Integral derivatives from FoFJK, PRISM(SPDF).
 Do as many integral derivatives as possible in FoFJK.
 G2DrvN: MDV=    1048575844.
 G2DrvN: will do     6 centers at a time, making    1 passes.
 Calling FoFCou, ICntrl=  3107 FMM=F I1Cent=   0 AccDes= 0.00D+00.
 FoFJK:  IHMeth= 1 ICntrl=    3107 DoSepK=F KAlg= 0 I1Cent=   0 FoldK=F
 IRaf=         0 NMat=   1 IRICut=       1 DoRegI=T DoRafI=F ISym2E= 0.
 FoFCou: FMM=F IPFlag=           0 FMFlag=      100000 FMFlg1=           0
         NFxFlg=           0 DoJE=F BraDBF=F KetDBF=F FulRan=T
         wScrn=  0.000000 ICntrl=    3107 IOpCl=  0 I1Cent=           0 NGrid=           0
         NMat0=    1 NMatS0=      1 NMatT0=    0 NMatD0=    1 NMtDS0=    0 NMtDT0=    0
 Symmetry not used in FoFCou.
 End of G2Drv F.D. properties file   721 does not exist.
 End of G2Drv F.D. properties file   722 does not exist.
 End of G2Drv F.D. properties file   788 does not exist.
 Leave Link 1110 at Fri Feb 10 10:36:44 2017, MaxMem=  1048576000 cpu:         3.5
 (Enter /mnt/data/applications/G09/g09/l1002.exe)
 Minotr:  Closed shell wavefunction.
          IDoAtm=11111000000000000
          Direct CPHF calculation.
          Differentiating once with respect to electric field.
                with respect to dipole field.
          Differentiating once with respect to nuclear coordinates.
          Requested convergence is 1.0D-08 RMS, and 1.0D-07 maximum.
          Secondary convergence is 1.0D-12 RMS, and 1.0D-12 maximum.
          NewPWx=T KeepS1=F KeepF1=F KeepIn=F MapXYZ=T SortEE=F KeepMc=T.
          MDV=    1048575803 using IRadAn=       2.
 Generate precomputed XC quadrature information.
 Keep R1 ints in memory in canonical form, NReq=898785.
 FoFCou: FMM=F IPFlag=           0 FMFlag=           0 FMFlg1=           0
         NFxFlg=           0 DoJE=F BraDBF=F KetDBF=F FulRan=T
         wScrn=  0.000000 ICntrl=     600 IOpCl=  0 I1Cent=           0 NGrid=           0
         NMat0=    1 NMatS0=    276 NMatT0=    0 NMatD0=    1 NMtDS0=    0 NMtDT0=    0
 Symmetry not used in FoFCou.
          Solving linear equations simultaneously, MaxMat=       0.
          There are    18 degrees of freedom in the 1st order CPHF.  IDoFFX=6 NUNeed=     3.
     15 vectors produced by pass  0 Test12= 5.00D-16 5.56D-09 XBig12= 6.08D+00 1.26D+00.
 AX will form    15 AO Fock derivatives at one time.
     15 vectors produced by pass  1 Test12= 5.00D-16 5.56D-09 XBig12= 5.19D-02 1.32D-01.
     15 vectors produced by pass  2 Test12= 5.00D-16 5.56D-09 XBig12= 1.73D-05 1.81D-03.
     15 vectors produced by pass  3 Test12= 5.00D-16 5.56D-09 XBig12= 1.46D-08 4.98D-05.
      8 vectors produced by pass  4 Test12= 5.00D-16 5.56D-09 XBig12= 5.23D-13 3.79D-07.
 InvSVY:  IOpt=1 It=  1 EMax= 6.66D-16
 Solved reduced A of dimension    68 with    15 vectors.
 FullF1:  Do perturbations    1 to     3.
 Isotropic polarizability for W=    0.000000       12.09 Bohr**3.
 End of Minotr F.D. properties file   721 does not exist.
 End of Minotr F.D. properties file   722 does not exist.
 End of Minotr F.D. properties file   788 does not exist.
 Leave Link 1002 at Fri Feb 10 10:36:45 2017, MaxMem=  1048576000 cpu:         2.9
 (Enter /mnt/data/applications/G09/g09/l601.exe)
 Copying SCF densities to generalized density rwf, IOpCl= 0 IROHF=0.

 **********************************************************************

            Population analysis using the SCF density.

 **********************************************************************

 Alpha  occ. eigenvalues --  -10.16186  -0.69426  -0.39355  -0.39355  -0.38625
 Alpha virt. eigenvalues --    0.12033   0.17366   0.18375   0.18375   0.52563
 Alpha virt. eigenvalues --    0.52563   0.53779   0.88722   0.91567   0.91567
 Alpha virt. eigenvalues --    0.97050   1.10358   1.65394   1.65394   2.22949
 Alpha virt. eigenvalues --    2.27576   2.27576   4.18825
          Condensed to atoms (all electrons):
               1          2          3          4          5
     1  C    5.088778   0.387215   0.387214   0.387214   0.382502
     2  H    0.387215   0.533735  -0.027944  -0.027943  -0.026185
     3  H    0.387214  -0.027944   0.533737  -0.027944  -0.026186
     4  H    0.387214  -0.027943  -0.027944   0.533738  -0.026186
     5  H    0.382502  -0.026185  -0.026186  -0.026186   0.546495
 Mulliken charges:
               1
     1  C   -0.632923
     2  H    0.161122
     3  H    0.161121
     4  H    0.161121
     5  H    0.149559
     6  C    0.000000
     7  H    0.000000
     8  H    0.000000
     9  H    0.000000
    10  C    0.000000
    11  H    0.000000
    12  H    0.000000
    13  H    0.000000
    14  C    0.000000
    15  H    0.000000
    16  H    0.000000
    17  H    0.000000
 Sum of Mulliken charges =   0.00000
 Mulliken charges with hydrogens summed into heavy atoms:
               1
     1  C    0.000000
     6  C    0.000000
    10  C    0.000000
    14  C    0.000000
 APT charges:
               1
     1  C   -0.015050
     2  H    0.005765
     3  H    0.005755
     4  H    0.005747
     5  H   -0.002218
     6  C    0.000000
     7  H    0.000000
     8  H    0.000000
     9  H    0.000000
    10  C    0.000000
    11  H    0.000000
    12  H    0.000000
    13  H    0.000000
    14  C    0.000000
    15  H    0.000000
    16  H    0.000000
    17  H    0.000000
 Sum of APT charges =   0.00000
 APT charges with hydrogens summed into heavy atoms:
               1
     1  C    0.000000
     6  C    0.000000
    10  C    0.000000
    14  C    0.000000
 Electronic spatial extent (au):  <R**2>=            353.5838
 Charge=              0.0000 electrons
 Dipole moment (field-independent basis, Debye):
    X=             -0.0106    Y=             -0.0150    Z=             -0.0260  Tot=              0.0319
 Quadrupole moment (field-independent basis, Debye-Ang):
   XX=             -8.2329   YY=             -8.1320   ZZ=             -8.2108
   XY=              0.0283   XZ=             -0.0054   YZ=              0.0857
 Traceless Quadrupole moment (field-independent basis, Debye-Ang):
   XX=             -0.0410   YY=              0.0599   ZZ=             -0.0189
   XY=              0.0283   XZ=             -0.0054   YZ=              0.0857
 Octapole moment (field-independent basis, Debye-Ang**2):
  XXX=            -11.8012  YYY=             71.8652  ZZZ=             -0.1732  XYY=             -3.4011
  XXY=             24.2928  XXZ=             -0.0679  XZZ=             -3.3051  YZZ=             24.7639
  YYZ=             -0.3368  XYZ=              0.0347
 Hexadecapole moment (field-independent basis, Debye-Ang**3):
 XXXX=            -25.7371 YYYY=           -436.6275 ZZZZ=            -15.0355 XXXY=             34.7704
 XXXZ=             -0.1865 YYYX=             29.0674 YYYZ=              1.2863 ZZZX=             -0.1390
 ZZZY=              0.4244 XXYY=            -78.1307 XXZZ=             -6.4776 YYZZ=            -79.6138
 XXYZ=              0.1766 YYXZ=             -0.2044 ZZXY=             10.2820
 N-N= 1.354859359030D+01 E-N=-1.201797827930D+02  KE= 4.013675281510D+01
  Exact polarizability:  11.936   0.111  12.015   0.192   0.272  12.329
 Approx polarizability:  14.048   0.151  14.155   0.262   0.371  14.583
 No NMR shielding tensors so no spin-rotation constants.
 Leave Link  601 at Fri Feb 10 10:36:45 2017, MaxMem=  1048576000 cpu:         1.6
 (Enter /mnt/data/applications/G09/g09/l701.exe)
 Compute integral second derivatives.
 ... and contract with generalized density number  0.
 Leave Link  701 at Fri Feb 10 10:36:46 2017, MaxMem=  1048576000 cpu:         2.0
 (Enter /mnt/data/applications/G09/g09/l702.exe)
 L702 exits ... SP integral derivatives will be done elsewhere.
 Leave Link  702 at Fri Feb 10 10:36:46 2017, MaxMem=  1048576000 cpu:         0.3
 (Enter /mnt/data/applications/G09/g09/l703.exe)
 Compute integral second derivatives, UseDBF=F ICtDFT=           0.
 Integral derivatives from FoFJK, PRISM(SPDF).
 Calling FoFJK, ICntrl=    100127 FMM=F ISym2X=0 I1Cent= 0 IOpClX= 0 NMat=1 NMatS=1 NMatT=0.
 FoFJK:  IHMeth= 1 ICntrl=  100127 DoSepK=F KAlg= 0 I1Cent=   0 FoldK=F
 IRaf=         0 NMat=   1 IRICut=       1 DoRegI=T DoRafI=F ISym2E= 0.
 FoFCou: FMM=F IPFlag=           0 FMFlag=      100000 FMFlg1=         800
         NFxFlg=           0 DoJE=F BraDBF=F KetDBF=F FulRan=T
         wScrn=  0.000000 ICntrl=  100127 IOpCl=  0 I1Cent=           0 NGrid=           0
         NMat0=    1 NMatS0=      1 NMatT0=    0 NMatD0=    1 NMtDS0=    0 NMtDT0=    0
 Symmetry not used in FoFCou.
 Leave Link  703 at Fri Feb 10 10:36:47 2017, MaxMem=  1048576000 cpu:         6.4
 (Enter /mnt/data/applications/G09/g09/l716.exe)
 Dipole        =-4.18130221D-03-5.91660220D-03-1.02426456D-02
 Polarizability= 1.19362781D+01 1.11061710D-01 1.20145874D+01
                 1.92125780D-01 2.71706025D-01 1.23285357D+01
 Cartesian Forces:  Max     0.022392271 RMS     0.005841897
 Leave Link  716 at Fri Feb 10 10:36:47 2017, MaxMem=  1048576000 cpu:         0.2
 (Enter /mnt/data/applications/G09/g09/l120.exe)
 SvSCFP is copying densities from files   528 and   530 to   603.
 ONIOM: saving gridpoint  2
 ONIOM: restoring gridpoint 17
 ONIOM: restoring gridpoint  1 on chk file.
 ONIOM: generating point  1 -- low level on model system.
 Leave Link  120 at Fri Feb 10 10:36:47 2017, MaxMem=  1048576000 cpu:         0.2
 (Enter /mnt/data/applications/G09/g09/l301.exe)
 Standard basis: STO-3G (5D, 7F)
 Ernie: Thresh=  0.10000D-02 Tol=  0.10000D-05 Strict=F.
     9 basis functions,    27 primitive gaussians,     9 cartesian basis functions
     5 alpha electrons        5 beta electrons
       nuclear repulsion energy        13.5485935903 Hartrees.
 IExCor=    0 DFT=F Ex=HF Corr=None ExCW=0 ScaHFX=  1.000000
 ScaDFX=  1.000000  1.000000  1.000000  1.000000 ScalE2=  1.000000  1.000000
 IRadAn=      0 IRanWt=     -1 IRanGd=            0 ICorTp=0 IEmpDi=  4
 NAtoms=   17 NActive=    5 NUniq=    5 SFac= 1.00D+00 NAtFMM=   60 NAOKFM=F Big=F
 Integral buffers will be    131072 words long.
 Raffenetti 1 integral format.
 Two-electron integral symmetry is turned off.
 Leave Link  301 at Fri Feb 10 10:36:47 2017, MaxMem=  1048576000 cpu:         0.3
 (Enter /mnt/data/applications/G09/g09/l402.exe)
 External calculation of energy, first and second derivatives.
 Running external command "./sictwo_files/sictwo_g09d01 M"
         input file       "/scratch/Gau-22933.EIn"
         output file      "/scratch/Gau-22933.EOu"
         message file     "/scratch/Gau-22933.EMs"
         fchk file        "/scratch/Gau-22933.EFC"
         mat. el file     "/scratch/Gau-22933.EUF"

---------------------------- SICTWO Version 1.0 STARTED -----------------------------

MM calculations started
MM calculations finished ....
Information recovery

---------------------------- SICTWO Version 1.0 FINISHED -----------------------------

 Recovered energy= 0.115886664720E-02 dipole=      0.000000000000      0.000000000000      0.000000000000
 Energy=    1.158866647E-03 NIter=   0.
 Dipole moment=       0.000000       0.000000       0.000000
 Leave Link  402 at Fri Feb 10 10:36:49 2017, MaxMem=  1048576000 cpu:        15.0
 (Enter /mnt/data/applications/G09/g09/l601.exe)
 Leave Link  601 at Fri Feb 10 10:36:49 2017, MaxMem=  1048576000 cpu:         0.2
 (Enter /mnt/data/applications/G09/g09/l716.exe)
 Dipole        = 0.00000000D+00 0.00000000D+00 0.00000000D+00
 Cartesian Forces:  Max     0.019930566 RMS     0.005083755
 Leave Link  716 at Fri Feb 10 10:36:49 2017, MaxMem=  1048576000 cpu:         0.2
 (Enter /mnt/data/applications/G09/g09/l120.exe)
 SvSCFP did not find density file   528.
 ONIOM: saving gridpoint  1
 ONIOM: restoring gridpoint  3
 ONIOM: calculating energy.
 ONIOM: gridpoint  1 method:  low   system:  model energy:     0.001158866647
 ONIOM: gridpoint  2 method:  high  system:  model energy:   -40.517048014925
 ONIOM: gridpoint  3 method:  low   system:  real  energy:     0.019279862978
 ONIOM: extrapolated energy =     -40.498927018594
 ONIOM: calculating first derivatives.
 ONIOM: calculating second derivatives.
 ONIOM: calculating electric field derivatives.
 ONIOM: Integrating ONIOM file  4 number   619
 ONIOM: Dipole        =-4.18130221D-03-5.91660220D-03-1.02426456D-02
 ONIOM: Polarizability= 1.19362781D+01 1.11061710D-01 1.20145874D+01
                        1.92125780D-01 2.71706025D-01 1.23285357D+01
 ONIOM: Dipole moment (Debye):
    X=    -0.0106    Y=    -0.0150    Z=    -0.0260  Tot=     0.0319
 ONIOM: Integrating ONIOM file  5 number   695
 Nuclear Quadrupole Tensors: 
                 1             2             3             4             5 
      1   0.104090D-01  0.113278D+00  0.113272D+00 -0.340137D+00  0.000000D+00
      2  -0.735897D-02  0.160491D+00 -0.803684D-01  0.197189D-03  0.000000D+00
      3   0.520312D-02 -0.283330D+00  0.564480D-01  0.170086D+00  0.000000D+00
      4  -0.127480D-01 -0.138274D-03  0.138927D+00  0.330435D-03  0.000000D+00
      5  -0.180278D-01  0.301576D-03  0.196467D+00 -0.298571D-04  0.000000D+00
      6  -0.156121D-01  0.170051D+00 -0.169720D+00  0.170051D+00  0.000000D+00
                 6             7             8             9            10 
      1   0.000000D+00  0.000000D+00  0.000000D+00  0.000000D+00  0.000000D+00
      2   0.000000D+00  0.000000D+00  0.000000D+00  0.000000D+00  0.000000D+00
      3   0.000000D+00  0.000000D+00  0.000000D+00  0.000000D+00  0.000000D+00
      4   0.000000D+00  0.000000D+00  0.000000D+00  0.000000D+00  0.000000D+00
      5   0.000000D+00  0.000000D+00  0.000000D+00  0.000000D+00  0.000000D+00
      6   0.000000D+00  0.000000D+00  0.000000D+00  0.000000D+00  0.000000D+00
                11            12            13            14            15 
      1   0.000000D+00  0.000000D+00  0.000000D+00  0.000000D+00  0.000000D+00
      2   0.000000D+00  0.000000D+00  0.000000D+00  0.000000D+00  0.000000D+00
      3   0.000000D+00  0.000000D+00  0.000000D+00  0.000000D+00  0.000000D+00
      4   0.000000D+00  0.000000D+00  0.000000D+00  0.000000D+00  0.000000D+00
      5   0.000000D+00  0.000000D+00  0.000000D+00  0.000000D+00  0.000000D+00
      6   0.000000D+00  0.000000D+00  0.000000D+00  0.000000D+00  0.000000D+00
                16            17 
      1   0.000000D+00  0.000000D+00
      2   0.000000D+00  0.000000D+00
      3   0.000000D+00  0.000000D+00
      4   0.000000D+00  0.000000D+00
      5   0.000000D+00  0.000000D+00
      6   0.000000D+00  0.000000D+00
 Saving ESP charges from gridpoint 2
 Leave Link  120 at Fri Feb 10 10:36:49 2017, MaxMem=  1048576000 cpu:         0.0
 (Enter /mnt/data/applications/G09/g09/l716.exe)
 Dipole        =-4.18130221D-03-5.91660220D-03-1.02426456D-02
 Polarizability= 1.19362781D+01 1.11061710D-01 1.20145874D+01
                 1.92125780D-01 2.71706025D-01 1.23285357D+01
 Full mass-weighted force constant matrix:
 Low frequencies --- -375.7274 -331.8487 -313.7015 -313.7009  -88.8205  -88.7872
 Low frequencies ---  -88.7408   -0.3264   -0.2142
 ******    4 imaginary frequencies (negative Signs) ****** 
 Diagonal vibrational polarizability:
        0.3058683       0.2957058       0.2552984
 Harmonic frequencies (cm**-1), IR intensities (KM/Mole), Raman scattering
 activities (A**4/AMU), depolarization ratios for plane and unpolarized
 incident light, reduced masses (AMU), force constants (mDyne/A),
 and normal coordinates:
                      1                      2                      3
                      A                      A                      A
 Frequencies --   -369.0764              -319.6817              -292.9240
 Red. masses --      1.0143                 1.0240                 1.0307
 Frc consts  --      0.0814                 0.0617                 0.0521
 %ModelSys   --     76.9851                20.2873                 1.3743
 %RealSys    --     23.0149                79.7127                98.6257
 IR Inten    --      0.0000                 0.0000                 0.0004
  Atom  AN      X      Y      Z        X      Y      Z        X      Y      Z
     1   6     0.00   0.00   0.00     0.00   0.00   0.00     0.00   0.02  -0.02
     2   1     0.42   0.15  -0.25     0.21   0.08  -0.13     0.00   0.02  -0.03
     3   1    -0.41   0.29   0.00    -0.21   0.15   0.00     0.01   0.04   0.00
     4   1     0.00  -0.44   0.25     0.00  -0.23   0.13     0.00   0.03  -0.02
     5   6     0.00   0.00   0.00     0.00   0.00   0.00     0.00   0.00   0.00
     6   6     0.00  -0.01   0.01     0.00  -0.02   0.01     0.00  -0.01   0.01
     7   1     0.01  -0.15  -0.07     0.01   0.23   0.16     0.01  -0.41  -0.22
     8   1     0.00   0.12  -0.07     0.00  -0.28   0.16     0.00   0.39  -0.22
     9   1    -0.01  -0.01   0.17    -0.01  -0.02  -0.28     0.00  -0.01   0.47
    10   6     0.01   0.00  -0.01     0.02   0.01  -0.01     0.00   0.00   0.02
    11   1    -0.11  -0.04   0.07     0.27   0.09  -0.16     0.26   0.08  -0.13
    12   1     0.15   0.04   0.07    -0.21  -0.09  -0.16    -0.24  -0.08  -0.12
    13   1     0.01   0.01  -0.17     0.02   0.02   0.28     0.01   0.01   0.33
    14   6    -0.01   0.01   0.00    -0.02   0.01   0.00    -0.01  -0.02  -0.02
    15   1     0.11  -0.08   0.00    -0.27   0.19   0.00    -0.14   0.06  -0.01
    16   1    -0.01   0.15   0.07    -0.02  -0.23  -0.16    -0.01  -0.16  -0.10
    17   1    -0.15  -0.04  -0.07     0.21   0.09   0.16     0.11   0.02   0.05
                      4                      5                      6
                      A                      A                      A
 Frequencies --   -292.9190               366.6118               366.6199
 Red. masses --      1.0306                 2.4304                 2.4305
 Frc consts  --      0.0521                 0.1925                 0.1925
 %ModelSys   --      1.3752                25.5638                25.5396
 %RealSys    --     98.6248                74.4362                74.4604
 IR Inten    --      0.0004                 0.0115                 0.0114
  Atom  AN      X      Y      Z        X      Y      Z        X      Y      Z
     1   6     0.03  -0.01  -0.01     0.16  -0.08  -0.02     0.05   0.14  -0.10
     2   1     0.04   0.00   0.00     0.26  -0.04   0.07     0.04   0.14  -0.23
     3   1     0.04  -0.01   0.00     0.24  -0.09   0.00     0.12   0.27  -0.01
     4   1     0.03  -0.02  -0.02     0.17  -0.18  -0.16     0.05   0.17  -0.18
     5   6     0.00   0.00   0.00     0.00   0.00   0.00     0.00   0.00   0.00
     6   6     0.00   0.02   0.02     0.00  -0.04  -0.18     0.00  -0.17   0.04
     7   1     0.01   0.10   0.07    -0.12  -0.06  -0.24     0.10  -0.24   0.05
     8   1    -0.02  -0.06   0.07     0.15  -0.05  -0.24     0.05  -0.24   0.05
     9   1     0.01   0.02  -0.05    -0.04  -0.05  -0.24    -0.15  -0.23   0.05
    10   6    -0.01  -0.01  -0.01    -0.04  -0.01   0.18    -0.16  -0.06  -0.04
    11   1     0.27   0.11  -0.19    -0.01  -0.13   0.24    -0.26   0.02  -0.05
    12   1    -0.31  -0.11  -0.19    -0.10   0.13   0.24    -0.24  -0.04  -0.06
    13   1    -0.01  -0.02   0.34    -0.04  -0.05   0.24    -0.17  -0.22  -0.06
    14   6    -0.01   0.00  -0.01    -0.12   0.13   0.02     0.11   0.09   0.10
    15   1     0.34  -0.26   0.00    -0.16   0.19   0.00     0.21   0.20   0.01
    16   1    -0.01   0.38   0.21    -0.13   0.23  -0.06     0.12   0.08   0.23
    17   1    -0.38  -0.13  -0.23    -0.22   0.10   0.15     0.14   0.11   0.18
                      7                      8                      9
                      A                      A                      A
 Frequencies --    449.6717               449.6853               451.5102
 Red. masses --      2.4137                 2.4138                 2.4127
 Frc consts  --      0.2876                 0.2876                 0.2898
 %ModelSys   --     19.1004                19.1041                24.9226
 %RealSys    --     80.8996                80.8959                75.0774
 IR Inten    --      0.0404                 0.0404                 0.0005
  Atom  AN      X      Y      Z        X      Y      Z        X      Y      Z
     1   6    -0.12   0.02   0.04     0.00   0.11  -0.06     0.07   0.10   0.17
     2   1    -0.27  -0.03  -0.03    -0.07   0.09  -0.30     0.06   0.09   0.15
     3   1    -0.27  -0.01  -0.04     0.06   0.31   0.07     0.06   0.09   0.16
     4   1    -0.13   0.16   0.28     0.00   0.22  -0.12     0.07   0.09   0.15
     5   6     0.16  -0.03  -0.05     0.00  -0.15   0.08     0.06   0.08   0.14
     6   6     0.19   0.02   0.04     0.00   0.11  -0.07     0.07  -0.06  -0.10
     7   1     0.22   0.04   0.06    -0.22   0.21  -0.11    -0.06  -0.13  -0.20
     8   1     0.10   0.04   0.07     0.00   0.22  -0.13     0.31  -0.11  -0.18
     9   1     0.22   0.03   0.07     0.22   0.20  -0.13    -0.06  -0.11  -0.21
    10   6    -0.07  -0.13   0.04     0.09  -0.15  -0.06    -0.08   0.04  -0.10
    11   1    -0.18  -0.12   0.08     0.10  -0.05  -0.12    -0.20   0.25  -0.18
    12   1    -0.22   0.01   0.06     0.16  -0.26  -0.11    -0.10  -0.10  -0.20
    13   1    -0.08  -0.35   0.08     0.09  -0.05  -0.13    -0.08  -0.09  -0.21
    14   6    -0.07   0.10  -0.09    -0.09  -0.02   0.16    -0.08  -0.11  -0.01
    15   1    -0.18   0.13  -0.06    -0.10   0.08   0.11    -0.20  -0.29   0.13
    16   1    -0.08   0.24  -0.26    -0.10   0.09   0.10    -0.08  -0.14  -0.18
    17   1    -0.22   0.05   0.04    -0.17  -0.04   0.28    -0.10  -0.12  -0.18
                     10                     11                     12
                      A                      A                      A
 Frequencies --    703.3174               859.6850               859.7087
 Red. masses --      4.4397                 1.8419                 1.8419
 Frc consts  --      1.2939                 0.8021                 0.8021
 %ModelSys   --     22.1174                16.4955                16.4672
 %RealSys    --     77.8826                83.5045                83.5328
 IR Inten    --      0.0843                 0.7839                 0.7829
  Atom  AN      X      Y      Z        X      Y      Z        X      Y      Z
     1   6    -0.09  -0.12  -0.21     0.06  -0.02  -0.01     0.01   0.06  -0.04
     2   1    -0.07  -0.12  -0.18    -0.19  -0.11  -0.15     0.04   0.06   0.30
     3   1    -0.07  -0.10  -0.19    -0.17   0.01  -0.09    -0.10  -0.24  -0.25
     4   1    -0.09  -0.10  -0.18     0.06   0.20   0.30     0.01  -0.10   0.13
     5   6    -0.01  -0.01  -0.02     0.14  -0.05  -0.03     0.02   0.13  -0.08
     6   6     0.28   0.00   0.00    -0.15  -0.03  -0.02    -0.03   0.07  -0.04
     7   1     0.26   0.02  -0.01    -0.13   0.05   0.04     0.36  -0.11   0.02
     8   1     0.21   0.01   0.02    -0.29   0.04   0.00    -0.05  -0.15   0.09
     9   1     0.26  -0.01   0.01    -0.01   0.03   0.04    -0.39  -0.06   0.10
    10   6    -0.10   0.27   0.00     0.03   0.12  -0.02     0.07  -0.10  -0.04
    11   1    -0.06   0.20   0.02    -0.18   0.14   0.06    -0.01  -0.24   0.07
    12   1    -0.07   0.25  -0.01    -0.22   0.28  -0.02    -0.10   0.16   0.04
    13   1    -0.10   0.24   0.01     0.02  -0.25   0.04     0.07  -0.29   0.10
    14   6    -0.10  -0.14   0.23     0.05  -0.06   0.05    -0.06  -0.04   0.13
    15   1    -0.06  -0.09   0.19    -0.18   0.04   0.08    -0.05  -0.18   0.21
    16   1    -0.10  -0.11   0.21     0.04   0.23  -0.26    -0.06  -0.17   0.12
    17   1    -0.07  -0.13   0.21    -0.24  -0.16   0.28     0.03  -0.01  -0.07
                     13                     14                     15
                      A                      A                      A
 Frequencies --    873.1311               969.9156               974.7522
 Red. masses --      1.7450                 1.2020                 1.2250
 Frc consts  --      0.7838                 0.6662                 0.6857
 %ModelSys   --     23.2683                 0.0008                 4.6392
 %RealSys    --     76.7317                99.9992                95.3608
 IR Inten    --      0.5431                 0.0000                 0.3454
  Atom  AN      X      Y      Z        X      Y      Z        X      Y      Z
     1   6     0.06   0.08   0.14     0.00   0.00   0.00     0.02  -0.01   0.00
     2   1     0.05   0.08   0.12     0.00   0.00   0.00    -0.10  -0.05  -0.09
     3   1     0.05   0.07   0.13     0.00   0.00   0.00    -0.07   0.04  -0.01
     4   1     0.06   0.07   0.12     0.00   0.00   0.00     0.02   0.10   0.11
     5   6    -0.04  -0.06  -0.11     0.00   0.00   0.00     0.00   0.00   0.00
     6   6     0.04  -0.04  -0.06     0.00  -0.07   0.04     0.00   0.04   0.09
     7   1     0.24   0.11   0.10    -0.36   0.12  -0.01    -0.29  -0.14  -0.14
     8   1    -0.35   0.04   0.06     0.00   0.17  -0.10     0.51  -0.03  -0.08
     9   1     0.24   0.03   0.14     0.36   0.07  -0.10    -0.22  -0.04  -0.21
    10   6    -0.05   0.03  -0.06     0.06   0.02  -0.04    -0.03  -0.01  -0.09
    11   1     0.15  -0.32   0.06    -0.16  -0.06   0.10     0.18  -0.44   0.08
    12   1     0.02   0.26   0.10    -0.23   0.30   0.01     0.03   0.31   0.13
    13   1    -0.05   0.24   0.14     0.06  -0.36   0.10    -0.03   0.20   0.20
    14   6    -0.05  -0.07  -0.01    -0.06   0.04   0.00     0.01  -0.02   0.00
    15   1     0.15   0.22  -0.25     0.16  -0.11   0.00    -0.01   0.04  -0.02
    16   1    -0.05   0.00   0.28    -0.06  -0.27   0.27     0.01   0.06  -0.04
    17   1     0.02  -0.04   0.28     0.23   0.14  -0.27    -0.04  -0.04   0.08
                     16                     17                     18
                      A                      A                      A
 Frequencies --    974.7609               994.6949               994.7672
 Red. masses --      1.2250                 1.2578                 1.2578
 Frc consts  --      0.6858                 0.7332                 0.7333
 %ModelSys   --      4.6098                58.4874                58.5423
 %RealSys    --     95.3902                41.5126                41.4577
 IR Inten    --      0.3435                 4.2822                 4.2892
  Atom  AN      X      Y      Z        X      Y      Z        X      Y      Z
     1   6     0.01   0.02  -0.01     0.10  -0.04  -0.02    -0.03  -0.09   0.06
     2   1    -0.02   0.00   0.11    -0.31  -0.18  -0.25    -0.02  -0.08  -0.44
     3   1    -0.07  -0.10  -0.11    -0.26   0.05  -0.11     0.17   0.35   0.39
     4   1     0.01  -0.03   0.10     0.09   0.33   0.44    -0.02   0.14  -0.24
     5   6     0.00   0.00   0.00     0.02  -0.01   0.00     0.00  -0.02   0.01
     6   6     0.00   0.04   0.03    -0.01   0.01  -0.02     0.00   0.07  -0.03
     7   1    -0.06  -0.09  -0.07     0.09  -0.02   0.00     0.31  -0.09   0.00
     8   1     0.26  -0.05  -0.03    -0.05  -0.04   0.02     0.01  -0.14   0.08
     9   1    -0.20  -0.03  -0.09    -0.07  -0.01   0.02    -0.32  -0.05   0.08
    10   6     0.04   0.01   0.04    -0.04  -0.01   0.04     0.05   0.03  -0.02
    11   1    -0.15   0.28  -0.03     0.09   0.07  -0.06    -0.11   0.00   0.06
    12   1    -0.07  -0.12  -0.09     0.14  -0.20   0.00    -0.14   0.19   0.00
    13   1     0.04  -0.22  -0.11    -0.04   0.23  -0.06     0.04  -0.23   0.06
    14   6    -0.05  -0.07  -0.06    -0.06   0.04   0.01    -0.02   0.01  -0.02
    15   1     0.24   0.33  -0.41     0.13  -0.10   0.01     0.05  -0.01  -0.04
    16   1    -0.05   0.05   0.36    -0.06  -0.23   0.23    -0.02  -0.06   0.07
    17   1     0.07  -0.03   0.36     0.19   0.13  -0.23     0.05   0.03  -0.06
                     19                     20                     21
                      A                      A                      A
 Frequencies --   1240.5476              1240.5525              1247.9282
 Red. masses --      2.8757                 2.8753                 3.1516
 Frc consts  --      2.6075                 2.6071                 2.8917
 %ModelSys   --     17.9848                17.9945                 8.8487
 %RealSys    --     82.0152                82.0055                91.1513
 IR Inten    --      2.8960                 2.8982                 0.6630
  Atom  AN      X      Y      Z        X      Y      Z        X      Y      Z
     1   6    -0.10   0.02   0.03     0.00  -0.10   0.06    -0.05  -0.07  -0.12
     2   1     0.29   0.15   0.03     0.00  -0.09  -0.36    -0.02  -0.06  -0.06
     3   1     0.29  -0.05   0.15     0.00   0.27   0.26    -0.02  -0.02  -0.09
     4   1    -0.10  -0.19  -0.33     0.00   0.26  -0.15    -0.05  -0.04  -0.06
     5   6     0.33  -0.06  -0.10     0.00   0.30  -0.18     0.13   0.18   0.31
     6   6    -0.12   0.02   0.03     0.00  -0.08   0.05    -0.04  -0.05  -0.08
     7   1    -0.11  -0.09  -0.02    -0.26   0.13   0.06     0.12   0.21   0.14
     8   1     0.04  -0.02  -0.03     0.00   0.25  -0.15    -0.31   0.00   0.00
     9   1    -0.11   0.02  -0.08     0.26   0.01  -0.15     0.12   0.02   0.26
    10   6    -0.10   0.03   0.03     0.01  -0.10   0.05    -0.03  -0.06  -0.08
    11   1     0.22   0.06  -0.11     0.10   0.07  -0.10     0.11  -0.30   0.00
    12   1     0.21  -0.11   0.07     0.07  -0.22   0.01     0.16   0.19   0.14
    13   1    -0.10   0.26  -0.08     0.01   0.04  -0.15    -0.03   0.12   0.26
    14   6    -0.10   0.01   0.04    -0.01  -0.09   0.07    -0.03  -0.04  -0.09
    15   1     0.22  -0.13  -0.01    -0.09   0.12  -0.01     0.11   0.15  -0.25
    16   1    -0.10  -0.21   0.19    -0.01   0.15   0.04    -0.03   0.16   0.23
    17   1     0.21   0.11  -0.06    -0.07  -0.12   0.18     0.16   0.03   0.23
                     22                     23                     24
                      A                      A                      A
 Frequencies --   1375.8350              1375.8364              1378.4881
 Red. masses --      1.1664                 1.1664                 1.1497
 Frc consts  --      1.3009                 1.3009                 1.2871
 %ModelSys   --      0.0549                 0.0549                 0.1078
 %RealSys    --     99.9451                99.9451                99.8922
 IR Inten    --      0.0104                 0.0104                 0.0169
  Atom  AN      X      Y      Z        X      Y      Z        X      Y      Z
     1   6     0.00   0.00   0.00     0.00   0.00   0.00     0.00   0.00   0.01
     2   1     0.00   0.00   0.01     0.01   0.01   0.00    -0.01   0.00  -0.01
     3   1     0.00  -0.01  -0.01     0.01   0.00   0.00    -0.01  -0.01  -0.01
     4   1     0.00  -0.01   0.01     0.00  -0.01  -0.01     0.00  -0.01  -0.01
     5   6     0.00  -0.01   0.01     0.01   0.00   0.00     0.00   0.00   0.01
     6   6     0.00   0.00   0.00     0.10   0.00   0.00     0.07   0.00   0.00
     7   1    -0.01  -0.01  -0.01    -0.43   0.08  -0.16    -0.30   0.07  -0.10
     8   1    -0.01  -0.02   0.02    -0.43   0.09   0.16    -0.31   0.06   0.11
     9   1    -0.02   0.00   0.01    -0.43  -0.18  -0.01    -0.30  -0.13   0.01
    10   6     0.03  -0.08   0.00     0.01  -0.04   0.00    -0.02   0.06   0.00
    11   1    -0.21   0.33  -0.13    -0.09   0.19  -0.09     0.16  -0.27   0.11
    12   1    -0.20   0.33   0.14    -0.10   0.18   0.08     0.17  -0.26  -0.10
    13   1     0.02   0.41   0.01     0.01   0.23  -0.01    -0.02  -0.33   0.01
    14   6    -0.03  -0.04   0.07     0.01   0.02  -0.04    -0.02  -0.03   0.05
    15   1     0.21   0.27  -0.21    -0.10  -0.18   0.13     0.16   0.23  -0.18
    16   1    -0.02   0.19  -0.35     0.01  -0.13   0.21    -0.02   0.17  -0.28
    17   1     0.20   0.05  -0.35    -0.11  -0.02   0.22     0.17   0.04  -0.28
                     25                     26                     27
                      A                      A                      A
 Frequencies --   1412.6306              1412.6329              1415.0311
 Red. masses --      1.0388                 1.0388                 1.0379
 Frc consts  --      1.2213                 1.2213                 1.2245
 %ModelSys   --      0.0517                 0.0517                 0.0064
 %RealSys    --     99.9483                99.9483                99.9936
 IR Inten    --      0.0060                 0.0060                 0.0000
  Atom  AN      X      Y      Z        X      Y      Z        X      Y      Z
     1   6     0.00   0.00   0.00     0.00   0.00   0.00     0.00   0.00   0.00
     2   1    -0.01  -0.01   0.01    -0.01   0.00   0.00     0.00   0.00   0.00
     3   1    -0.01   0.01   0.00     0.01   0.00   0.00     0.00   0.00   0.00
     4   1     0.00   0.00   0.00     0.00  -0.02   0.01     0.00   0.00   0.00
     5   6     0.00   0.00   0.00     0.00   0.00   0.00     0.00   0.00   0.00
     6   6     0.00  -0.02  -0.03     0.00  -0.01   0.01     0.00  -0.03   0.02
     7   1    -0.13   0.43   0.18     0.11   0.07   0.10     0.19   0.13   0.18
     8   1     0.28  -0.06  -0.11    -0.01   0.20  -0.11     0.00   0.35  -0.20
     9   1    -0.14  -0.06   0.46    -0.10  -0.05  -0.13    -0.19  -0.09  -0.20
    10   6     0.00   0.00   0.02    -0.02  -0.01  -0.03     0.02   0.01  -0.02
    11   1     0.24  -0.06  -0.05    -0.05   0.24  -0.15    -0.33  -0.12   0.20
    12   1    -0.18   0.10   0.00     0.41   0.07   0.20    -0.06  -0.22  -0.18
    13   1     0.00  -0.03  -0.32    -0.02  -0.18   0.35     0.02   0.20   0.20
    14   6     0.00   0.02   0.01     0.02   0.02   0.02    -0.02   0.02   0.00
    15   1     0.24   0.00  -0.08     0.03   0.25  -0.13     0.33  -0.23   0.00
    16   1     0.00  -0.28  -0.19     0.02  -0.38   0.00    -0.02  -0.08  -0.28
    17   1    -0.20  -0.05   0.08    -0.40  -0.14  -0.17     0.06   0.04   0.28
                     28                     29                     30
                      A                      A                      A
 Frequencies --   1425.9725              1426.5965              1426.6093
 Red. masses --      1.1620                 1.0483                 1.0482
 Frc consts  --      1.3921                 1.2570                 1.2569
 %ModelSys   --     97.3927                 1.3712                 1.3356
 %RealSys    --      2.6073                98.6288                98.6644
 IR Inten    --     12.5544                 0.1817                 0.1771
  Atom  AN      X      Y      Z        X      Y      Z        X      Y      Z
     1   6    -0.04  -0.06  -0.10     0.01  -0.01   0.00     0.01   0.00  -0.01
     2   1     0.28   0.07   0.49     0.01  -0.01   0.03    -0.08  -0.03   0.04
     3   1     0.28   0.39   0.30    -0.07   0.05   0.01    -0.02   0.03   0.00
     4   1    -0.03   0.28   0.49     0.00   0.06  -0.03     0.01  -0.05   0.01
     5   6     0.00   0.00   0.00    -0.02   0.03  -0.01    -0.03  -0.01   0.02
     6   6     0.00   0.00   0.00     0.00   0.03  -0.01     0.00  -0.01   0.02
     7   1     0.01  -0.05  -0.02    -0.16  -0.24  -0.22     0.22  -0.06   0.08
     8   1    -0.04   0.02   0.01    -0.07  -0.34   0.24    -0.09   0.28  -0.11
     9   1     0.00   0.00  -0.06     0.26   0.11   0.09    -0.08  -0.04  -0.30
    10   6     0.00   0.00   0.00    -0.01  -0.01  -0.01    -0.03  -0.01   0.02
    11   1     0.03  -0.04   0.02    -0.02   0.11  -0.07     0.42   0.14  -0.25
    12   1    -0.06  -0.01  -0.03     0.20   0.01   0.09     0.05   0.30   0.22
    13   1     0.00   0.00  -0.07    -0.01  -0.11   0.17    -0.02  -0.27  -0.27
    14   6     0.00   0.00   0.00    -0.02   0.02   0.01    -0.02   0.00  -0.01
    15   1     0.01   0.04  -0.02     0.41  -0.23  -0.03     0.11  -0.21   0.06
    16   1     0.00  -0.05  -0.02    -0.02  -0.16  -0.35    -0.01   0.16  -0.13
    17   1    -0.05  -0.02  -0.03    -0.02   0.01   0.33     0.21   0.08   0.17
                     31                     32                     33
                      A                      A                      A
 Frequencies --   1436.6251              1533.8876              1533.9606
 Red. masses --      1.0593                 1.0433                 1.0433
 Frc consts  --      1.2881                 1.4463                 1.4464
 %ModelSys   --      2.4645                97.9425                97.9437
 %RealSys    --     97.5355                 2.0575                 2.0563
 IR Inten    --      0.5744                 4.2935                 4.2909
  Atom  AN      X      Y      Z        X      Y      Z        X      Y      Z
     1   6     0.00   0.00   0.00    -0.02   0.04  -0.01    -0.04  -0.02   0.02
     2   1    -0.04  -0.02  -0.08    -0.19  -0.03  -0.39     0.57   0.20  -0.33
     3   1    -0.04  -0.06  -0.05     0.60  -0.21   0.10     0.07  -0.45  -0.20
     4   1     0.00  -0.05  -0.08    -0.02  -0.39   0.49    -0.03   0.50   0.13
     5   6     0.02   0.03   0.04    -0.02   0.02  -0.01    -0.02  -0.01   0.02
     6   6     0.00   0.01   0.02     0.00   0.00   0.00     0.00   0.00   0.00
     7   1     0.12  -0.31  -0.12    -0.03  -0.02  -0.02     0.03   0.00   0.01
     8   1    -0.25   0.05   0.09     0.00  -0.03   0.02     0.00   0.02  -0.01
     9   1     0.12   0.05  -0.33     0.04   0.01   0.02    -0.01  -0.01  -0.02
    10   6     0.01   0.00   0.02     0.00   0.00   0.00     0.00   0.00   0.00
    11   1     0.13  -0.22   0.09     0.00   0.00   0.00     0.03   0.01  -0.02
    12   1    -0.33   0.01  -0.12     0.01  -0.01   0.00     0.00   0.04   0.02
    13   1     0.01   0.13  -0.33     0.00  -0.01   0.01     0.00  -0.04  -0.02
    14   6     0.01   0.02   0.01     0.00   0.00   0.00     0.00   0.00   0.00
    15   1     0.13   0.19  -0.14     0.03  -0.02   0.00     0.01  -0.01   0.00
    16   1     0.01  -0.35  -0.05     0.00  -0.01  -0.04     0.00   0.01  -0.03
    17   1    -0.33  -0.11  -0.05    -0.01   0.00   0.05     0.01   0.01   0.02
                     34                     35                     36
                      A                      A                      A
 Frequencies --   3072.8013              3073.6665              3073.6665
 Red. masses --      1.0326                 1.0337                 1.0337
 Frc consts  --      5.7444                 5.7538                 5.7538
 %ModelSys   --      0.0009                 0.0002                 0.0002
 %RealSys    --     99.9991                99.9998                99.9998
 IR Inten    --      0.0000                 0.0001                 0.0001
  Atom  AN      X      Y      Z        X      Y      Z        X      Y      Z
     1   6     0.00   0.00   0.00     0.00   0.00   0.00     0.00   0.00   0.00
     2   1     0.00   0.00   0.00     0.00   0.00   0.00     0.00   0.00   0.00
     3   1     0.00   0.00   0.00     0.00   0.00   0.00     0.00   0.00   0.00
     4   1     0.00   0.00   0.00     0.00   0.00   0.00     0.00   0.00   0.00
     5   6     0.00   0.00   0.00     0.00   0.00   0.00     0.00   0.00   0.00
     6   6     0.03   0.00   0.00     0.01   0.00   0.00     0.04   0.00   0.00
     7   1    -0.11  -0.16   0.27    -0.05  -0.07   0.12    -0.14  -0.21   0.37
     8   1    -0.11  -0.16  -0.27    -0.05  -0.07  -0.12    -0.14  -0.21  -0.37
     9   1    -0.11   0.32   0.00    -0.04   0.13   0.00    -0.14   0.43   0.00
    10   6    -0.01   0.03   0.00     0.01  -0.04   0.00     0.00  -0.01   0.00
    11   1    -0.11  -0.15  -0.27     0.16   0.21   0.38     0.03   0.05   0.08
    12   1    -0.11  -0.15   0.27     0.16   0.21  -0.38     0.04   0.05  -0.09
    13   1     0.33   0.00   0.00    -0.46  -0.01   0.00    -0.10   0.00   0.00
    14   6    -0.01  -0.01   0.02    -0.01  -0.01   0.02     0.01   0.01  -0.02
    15   1    -0.11  -0.16  -0.27    -0.11  -0.15  -0.26     0.12   0.17   0.28
    16   1     0.33   0.00   0.00     0.32   0.00   0.00    -0.35   0.00   0.00
    17   1    -0.11   0.31   0.00    -0.11   0.30   0.00     0.12  -0.33   0.00
                     37                     38                     39
                      A                      A                      A
 Frequencies --   3189.8772              3191.2874              3191.2907
 Red. masses --      1.1058                 1.1073                 1.1073
 Frc consts  --      6.6295                 6.6443                 6.6443
 %ModelSys   --      0.0000                 0.0087                 0.0087
 %RealSys    --    100.0000                99.9913                99.9913
 IR Inten    --      0.0000                 0.0020                 0.0020
  Atom  AN      X      Y      Z        X      Y      Z        X      Y      Z
     1   6     0.00   0.00   0.00     0.00   0.00   0.00     0.00   0.00   0.00
     2   1     0.00   0.00   0.00     0.00  -0.01   0.00     0.00   0.00   0.00
     3   1     0.00   0.00   0.00     0.00   0.00   0.00     0.00   0.00  -0.01
     4   1     0.00   0.00   0.00     0.01   0.00   0.00     0.01   0.00   0.00
     5   6     0.00   0.00   0.00     0.00   0.00   0.00     0.00   0.00   0.00
     6   6     0.00   0.05  -0.03     0.00  -0.04  -0.04     0.00  -0.01  -0.05
     7   1    -0.14  -0.19   0.33    -0.04  -0.06   0.08    -0.12  -0.17   0.28
     8   1     0.00   0.01   0.00     0.15   0.21   0.37     0.15   0.21   0.36
     9   1     0.14  -0.38   0.00    -0.12   0.33  -0.01    -0.03   0.09  -0.01
    10   6    -0.04  -0.02   0.03     0.04   0.01   0.06     0.01   0.00  -0.03
    11   1    -0.01   0.00   0.00    -0.20  -0.29  -0.50     0.06   0.08   0.14
    12   1     0.13   0.19  -0.33     0.09   0.13  -0.21    -0.08  -0.12   0.20
    13   1     0.41   0.00   0.00    -0.35   0.00   0.01    -0.08   0.00   0.00
    14   6     0.04  -0.03   0.00     0.01  -0.03  -0.01     0.04   0.04   0.04
    15   1     0.01   0.00   0.00     0.05   0.07   0.13    -0.20  -0.29  -0.50
    16   1    -0.41   0.00   0.00    -0.09   0.00   0.00    -0.35   0.01   0.01
    17   1    -0.13   0.38   0.00    -0.08   0.23   0.00     0.09  -0.25   0.01
                     40                     41                     42
                      A                      A                      A
 Frequencies --   3193.6586              3193.6601              3193.7351
 Red. masses --      1.1100                 1.1100                 1.1096
 Frc consts  --      6.6704                 6.6704                 6.6680
 %ModelSys   --      0.0001                 0.0001                 0.0029
 %RealSys    --     99.9999                99.9999                99.9971
 IR Inten    --      0.0000                 0.0000                 0.0001
  Atom  AN      X      Y      Z        X      Y      Z        X      Y      Z
     1   6     0.00   0.00   0.00     0.00   0.00   0.00     0.00   0.00   0.00
     2   1     0.00   0.00   0.00     0.00   0.00   0.00     0.00   0.00   0.00
     3   1     0.00   0.00   0.00     0.00   0.00   0.00     0.00   0.00   0.00
     4   1     0.00   0.00   0.00     0.00   0.00   0.00     0.00   0.00   0.00
     5   6     0.00   0.00   0.00     0.00   0.00   0.00     0.00   0.00   0.00
     6   6     0.00   0.06  -0.02     0.00  -0.03   0.04     0.00   0.03   0.05
     7   1    -0.12  -0.16   0.30     0.14   0.20  -0.35     0.08   0.11  -0.18
     8   1    -0.04  -0.05  -0.11    -0.05  -0.08  -0.12    -0.16  -0.22  -0.38
     9   1     0.16  -0.46   0.00    -0.09   0.26   0.01     0.08  -0.22   0.01
    10   6     0.06   0.02  -0.03     0.01   0.00  -0.03     0.03   0.01   0.05
    11   1    -0.01  -0.03  -0.06     0.06   0.09   0.15    -0.16  -0.22  -0.38
    12   1    -0.15  -0.23   0.40    -0.09  -0.13   0.23     0.08   0.11  -0.19
    13   1    -0.55   0.00   0.00    -0.10   0.00   0.00    -0.24   0.00   0.01
    14   6     0.00  -0.02  -0.01     0.06  -0.04   0.00     0.03   0.04   0.03
    15   1     0.07   0.09   0.16     0.00  -0.02  -0.03    -0.16  -0.22  -0.38
    16   1     0.01   0.00   0.00    -0.56  -0.01   0.00    -0.23   0.01   0.00
    17   1    -0.06   0.18   0.00    -0.17   0.49   0.00     0.08  -0.22   0.00
                     43                     44                     45
                      A                      A                      A
 Frequencies --   3290.3285              3393.0332              3393.1615
 Red. masses --      1.0320                 1.1070                 1.1070
 Frc consts  --      6.5829                 7.5086                 7.5092
 %ModelSys   --     99.9945                99.9907                99.9907
 %RealSys    --      0.0055                 0.0093                 0.0093
 IR Inten    --      6.3045                21.8286                21.8276
  Atom  AN      X      Y      Z        X      Y      Z        X      Y      Z
     1   6    -0.02  -0.02  -0.04     0.07  -0.06   0.01     0.05   0.06  -0.05
     2   1    -0.20   0.54  -0.01    -0.24   0.71   0.00     0.11  -0.29  -0.01
     3   1    -0.20  -0.28   0.46     0.05   0.04  -0.09    -0.27  -0.38   0.66
     4   1     0.58   0.00  -0.01    -0.64  -0.01   0.00    -0.50   0.01  -0.01
     5   6     0.00   0.00   0.00     0.00   0.00   0.00     0.00   0.00   0.00
     6   6     0.00   0.00   0.00     0.00   0.00   0.00     0.00   0.00   0.00
     7   1     0.00   0.00   0.00     0.00   0.00   0.00     0.00   0.00   0.00
     8   1     0.00   0.00   0.00     0.00   0.00   0.00     0.00   0.00   0.00
     9   1     0.00   0.00   0.00     0.00   0.00   0.00     0.00   0.00   0.00
    10   6     0.00   0.00   0.00     0.00   0.00   0.00     0.00   0.00   0.00
    11   1     0.00   0.00   0.00     0.00   0.00   0.00     0.00   0.00   0.00
    12   1     0.00   0.00   0.00     0.00   0.00   0.00     0.00   0.00   0.00
    13   1     0.00   0.00   0.00     0.00   0.00   0.00     0.00   0.00   0.00
    14   6     0.00   0.00   0.00     0.00   0.00   0.00     0.00   0.00   0.00
    15   1     0.00   0.00   0.00     0.00   0.00   0.00     0.00   0.00   0.00
    16   1     0.00   0.00   0.00     0.00   0.00   0.00     0.00   0.00   0.00
    17   1     0.00   0.00   0.00     0.00   0.00   0.00     0.00   0.00   0.00

 -------------------
 - Thermochemistry -
 -------------------
 Temperature   298.150 Kelvin.  Pressure   1.00000 Atm.
 Atom     1 has atomic number  6 and mass  12.00000
 Atom     2 has atomic number  1 and mass   1.00783
 Atom     3 has atomic number  1 and mass   1.00783
 Atom     4 has atomic number  1 and mass   1.00783
 Atom     5 has atomic number  6 and mass  12.00000
 Atom     6 has atomic number  6 and mass  12.00000
 Atom     7 has atomic number  1 and mass   1.00783
 Atom     8 has atomic number  1 and mass   1.00783
 Atom     9 has atomic number  1 and mass   1.00783
 Atom    10 has atomic number  6 and mass  12.00000
 Atom    11 has atomic number  1 and mass   1.00783
 Atom    12 has atomic number  1 and mass   1.00783
 Atom    13 has atomic number  1 and mass   1.00783
 Atom    14 has atomic number  6 and mass  12.00000
 Atom    15 has atomic number  1 and mass   1.00783
 Atom    16 has atomic number  1 and mass   1.00783
 Atom    17 has atomic number  1 and mass   1.00783
 Molecular mass:    72.09390 amu.
 Principal axes and moments of inertia in atomic units:
                           1         2         3
     Eigenvalues --   403.88862 403.88873 403.88889
           X            0.80531   0.28498   0.51986
           Y           -0.50079  -0.14231   0.85379
           Z           -0.31730   0.94791  -0.02811
 This molecule is an asymmetric top.
 Rotational symmetry number  1.
 Rotational temperatures (Kelvin)      0.21445     0.21445     0.21445
 Rotational constants (GHZ):           4.46841     4.46841     4.46841
    4 imaginary frequencies ignored.
 Zero-point vibrational energy     416432.8 (Joules/Mol)
                                   99.52983 (Kcal/Mol)
 Warning -- explicit consideration of   5 degrees of freedom as
           vibrations may cause significant error
 Vibrational temperatures:    527.47   527.48   646.98   647.00   649.62
          (Kelvin)           1011.92  1236.89  1236.93  1256.24  1395.49
                             1402.45  1402.46  1431.14  1431.25  1784.87
                             1784.88  1795.49  1979.52  1979.52  1983.33
                             2032.46  2032.46  2035.91  2051.65  2052.55
                             2052.57  2066.98  2206.92  2207.02  4421.07
                             4422.31  4422.32  4589.52  4591.55  4591.55
                             4594.96  4594.96  4595.07  4734.04  4881.81
                             4882.00
 
 Zero-point correction=                           0.158611 (Hartree/Particle)
 Thermal correction to Energy=                    0.163538
 Thermal correction to Enthalpy=                  0.164482
 Thermal correction to Gibbs Free Energy=         0.130941
 Sum of electronic and zero-point Energies=            -40.340316
 Sum of electronic and thermal Energies=               -40.335389
 Sum of electronic and thermal Enthalpies=             -40.334445
 Sum of electronic and thermal Free Energies=          -40.367986
 
                     E (Thermal)             CV                S
                      KCal/Mol        Cal/Mol-Kelvin    Cal/Mol-Kelvin
 Total                  102.622             19.288             70.594
 Electronic               0.000              0.000              0.000
 Translational            0.889              2.981             38.743
 Rotational               0.889              2.981             25.691
 Vibrational            100.844             13.326              6.160
 Vibration     1          0.740              1.541              1.094
 Vibration     2          0.740              1.541              1.094
 Vibration     3          0.809              1.362              0.797
 Vibration     4          0.809              1.362              0.797
 Vibration     5          0.810              1.358              0.791
                       Q            Log10(Q)             Ln(Q)
 Total Bot       0.590834D-60        -60.228534       -138.681325
 Total V=0       0.533647D+13         12.727254         29.305586
 Vib (Bot)       0.267254D-72        -72.573076       -167.105684
 Vib (Bot)    1  0.497744D+00         -0.302994         -0.697669
 Vib (Bot)    2  0.497730D+00         -0.303006         -0.697697
 Vib (Bot)    3  0.381463D+00         -0.418548         -0.963742
 Vib (Bot)    4  0.381447D+00         -0.418566         -0.963783
 Vib (Bot)    5  0.379342D+00         -0.420969         -0.969316
 Vib (V=0)       0.241386D+01          0.382712          0.881228
 Vib (V=0)    1  0.120551D+01          0.081172          0.186906
 Vib (V=0)    2  0.120550D+01          0.081169          0.186897
 Vib (V=0)    3  0.112890D+01          0.052655          0.121243
 Vib (V=0)    4  0.112889D+01          0.052651          0.121234
 Vib (V=0)    5  0.112762D+01          0.052161          0.120105
 Electronic      0.100000D+01          0.000000          0.000000
 Translational   0.240604D+08          7.381303         16.996078
 Rotational      0.918838D+05          4.963239         11.428280
 
                                                ONIOM(QM:MM) OPT FREQ with SICTWO
  V1.0
                                                             IR Spectrum
 
      3  3 333   3                                                        11111111   11                                              
      3  2 111   0                                                        54444433   22       999  88     7        44  3             
      9  9 999   7                                                        33221177   44       977  76     0        55  6             
      3  0 410   3                                                        47765386   81       550  30     3        20  7             
 
      X  X                                                                XXXX       XX       XX   XX     X         X                
      X  X                                                                X  X        X       X                                      
      X  X                                                                X  X        X       X                                      
      X                                                                   X  X                X                                      
      X                                                                      X                                                       
[...]
 Variable       Old X    -DE/DX   Delta X   Delta X   Delta X     New X
                                 (Linear)    (Quad)   (Total)
    R1        2.02201   0.01785   0.00000   0.04505   0.04505   2.06705
    R2        2.02201   0.01785   0.00000   0.04504   0.04504   2.06705
    R3        2.02201   0.01785   0.00000   0.04504   0.04504   2.06705
    R4        2.91018  -0.00004   0.00000  -0.02331  -0.02331   2.88687
    A1        1.91063  -0.00099   0.00000  -0.02155  -0.02229   1.88835
    A2        1.91063  -0.00209   0.00000  -0.02218  -0.02266   1.88798
    A3        1.91063   0.00152   0.00000   0.02195   0.02205   1.93269
    A4        1.91063  -0.00209   0.00000  -0.02221  -0.02269   1.88794
    A5        1.91063   0.00152   0.00000   0.02195   0.02205   1.93268
    A6        1.91063   0.00212   0.00000   0.02205   0.02201   1.93264
    D1       -2.09439   0.00376   0.00000   0.05358   0.05277  -2.04163
    D2        2.09439   0.00065   0.00000   0.00049   0.00034   2.09474
    D3       -2.09440   0.00033   0.00000   0.00022   0.00015  -2.09425
    D4        2.09440  -0.00033   0.00000  -0.00027  -0.00019   2.09420
         Item               Value     Threshold  Converged?
 Maximum Force            0.017855     0.000450     NO 
 RMS     Force            0.008409     0.000300     NO 
 Maximum Displacement     0.032087     0.001800     NO 
 RMS     Displacement     0.018865     0.001200     NO 
 Maximum MM Force         0.023681     0.000450     NO 
 RMS     MM Force         0.010446     0.000300     NO 
 Predicted change in Energy=-1.421499D-03
 GradGradGradGradGradGradGradGradGradGradGradGradGradGradGradGradGradGrad

 Leave Link  103 at Fri Feb 10 10:36:50 2017, MaxMem=  1048576000 cpu:         0.0
 (Enter /mnt/data/applications/G09/g09/l9999.exe)
 1\1\GINC-KIMIK2116\Freq\ONIOM(B3LYP/6-31G(d):External='./sictwo_files/
 sictwo_g09d01')\Mixed\C5H12\IFUNES\10-Feb-2017\0\\#p freq oniom(B3LYP/
 6-31G*:external="./sictwo_files/sictwo_g09d01") geom=connectivity nosy
 mm scf(maxcyc=100)\\ONIOM(QM:MM) OPT FREQ with SICTWO V1.0\\0,1\C,0.44
 534414,-2.95546554,0.\H,0.80199856,-3.96427555,0.\H,0.80201698,-2.4510
 6735,-0.8736515\H,-0.62465586,-2.95545236,0.\C,0.95868636,-2.22950927,
 1.25740497\C,2.49868636,-2.22955258,1.25741853\H,2.85537455,-1.7268439
 5,0.38280001\H,2.85535925,-1.72347759,2.13009977\H,2.85532482,-3.23836
 635,1.25936524\C,0.44539309,-0.77756918,1.25739123\H,0.80191114,-0.273
 2312,2.13114066\H,0.80220835,-0.27310205,0.38383768\H,-0.62460689,-0.7
 775691,1.25720922\C,0.44532159,-2.95545012,2.51480964\H,0.8021269,-2.4
 5114508,3.38846082\H,-0.6246784,-2.95528011,2.51488065\H,0.80182791,-3
 .96431246,2.51473835\\Version=EM64L-G09RevD.01\HF=0.0011589\RMSD=1.502
 e-09\RMSF=1.052e-02\ZeroPoint=0.1586109\Thermal=0.1635381\Dipole=-0.00
 41813,-0.0059166,-0.0102426\DipoleDeriv=-0.0110499,-0.0032752,-0.00565
 14,-0.0032764,-0.013359,-0.0079853,-0.0056465,-0.0079843,-0.0225766,0.
 0556704,0.0649091,-0.0020918,0.0672206,-0.1137315,-0.0020207,-0.000756
 6,-0.0057985,0.0753573,0.0556763,-0.0342572,0.0551797,-0.0342569,0.031
 4508,0.0780168,0.0578419,0.0817868,-0.069863,-0.1364302,-0.0007007,-0.
 0012075,-0.0030106,0.0783721,-0.0026482,-0.0052154,-0.002647,0.0752992
 ,0.0361333,-0.026676,-0.046229,-0.0266767,0.0172676,-0.0653627,-0.0462
 235,-0.065357,-0.0582169,0.,0.,0.,0.,0.,0.,0.,0.,0.,0.,0.,0.,0.,0.,0.,
 0.,0.,0.,0.,0.,0.,0.,0.,0.,0.,0.,0.,0.,0.,0.,0.,0.,0.,0.,0.,0.,0.,0.,0
 .,0.,0.,0.,0.,0.,0.,0.,0.,0.,0.,0.,0.,0.,0.,0.,0.,0.,0.,0.,0.,0.,0.,0.
 ,0.,0.,0.,0.,0.,0.,0.,0.,0.,0.,0.,0.,0.,0.,0.,0.,0.,0.,0.,0.,0.,0.,0.,
 0.,0.,0.,0.,0.,0.,0.,0.,0.,0.,0.,0.,0.,0.,0.,0.,0.,0.,0.,0.,0.,0.,0.\P
 olar=11.9362781,0.1110617,12.0145874,0.1921258,0.271706,12.3285357\PG=
 C01 [X(C5H12)]\NImag=4\\0.64111227,-0.03491820,0.61638879,-0.06053095,
 -0.08560398,0.51759825,-0.08321233,0.10417512,0.00033014,0.08628188,0.
 10591224,-0.33939887,0.00391337,-0.11086511,0.35968928,0.00133190,0.00
 108162,-0.04379746,0.00419862,0.00090593,0.05190370,-0.08323543,-0.051
 80225,0.09040525,0.00388287,0.00511633,-0.01196742,0.08631556,-0.05180
 333,-0.11986270,0.12784452,-0.01292302,-0.01311766,0.02742897,0.059062
 26,0.12808755,0.09240646,0.13068357,-0.26337129,-0.00155557,-0.0014561
 6,0.00188110,-0.09392417,-0.13282553,0.28356010,-0.37697401,0.00205423
 ,0.00357875,-0.00877356,-0.00105792,0.00012859,-0.00877107,0.00064415,
 -0.00085431,0.39900090,0.00032276,-0.04565520,0.00162015,0.03455216,0.
 00306599,-0.00010434,-0.01739613,-0.00046754,-0.00195488,-0.00030947,0
 .04699909,0.00057351,0.00161842,-0.04378180,-0.00014213,0.00008656,-0.
 00163654,0.02984707,-0.00214626,0.00188020,-0.00054326,0.00425939,0.05
 189035,-0.09031296,-0.01525846,-0.02643129,0.00365903,0.00254800,0.007
 21296,0.00365373,0.00497870,0.00581635,-0.00397558,-0.01598643,-0.0276
 8635,0.45136184,-0.01526157,-0.10109194,-0.03737348,-0.01328561,-0.008
 72876,-0.02681927,0.00497855,0.00717137,0.00822125,-0.00014806,-0.0010
 9684,-0.00213185,0.00273199,0.45329206,-0.02642994,-0.03737813,-0.1442
 5893,-0.00192636,-0.00095673,-0.00355893,-0.01247202,-0.01763351,-0.01
 945955,-0.00026089,-0.00213410,-0.00356055,0.00474041,0.00670053,0.461
 03151,-0.00810062,0.00143225,0.00248014,-0.00111550,-0.00145041,-0.001
 05133,-0.00111537,-0.00018520,-0.00178162,-0.00013419,-0.00003231,-0.0
 0005592,-0.16206029,0.00000245,-0.00000080,0.40914019,-0.01232892,0.00
 083101,-0.00070789,-0.00180764,-0.00130610,-0.00085614,0.00017208,0.00
 002628,-0.00023259,-0.00003231,0.00005377,-0.00004565,0.00000245,-0.07
 740192,-0.00000799,0.00000522,0.60176120,-0.02135177,-0.00071124,0.000
 01455,-0.00084507,-0.00100197,-0.00060235,-0.00198788,-0.00008675,-0.0
 0193469,-0.00005592,-0.00004565,0.00000107,-0.00000080,0.00000790,-0.0
 7740179,-0.00000161,-0.00000013,0.60176222,-0.00256908,-0.00146483,-0.
 00045638,-0.00001901,-0.00001847,-0.00000317,-0.00073203,-0.00028516,-
 0.00049472,0.00000776,0.00000330,0.00000103,-0.01284760,-0.01239662,0.
 02156406,-0.07189836,-0.04556961,0.07928641,0.08308938,-0.00146483,-0.
 00082071,-0.00001428,-0.00001847,-0.00002218,-0.00000344,-0.00028516,-
 0.00002410,-0.00017449,0.00000330,-0.00000045,0.00000036,0.00226393,0.
 00231695,-0.00194013,-0.04451703,-0.10764606,0.11275808,0.04726368,0.1
 0817960,-0.00045638,-0.00045009,0.00035732,-0.00000317,-0.00000344,-0.
 00000263,-0.00049472,-0.00017449,-0.00022625,0.00000103,0.00000036,-0.
 00000152,-0.00393819,-0.00194397,0.00458245,0.07745115,0.11275924,-0.2
 3900672,-0.08220665,-0.12036631,0.24841286,-0.00007796,-0.00004230,-0.
 00007310,0.00000165,0.00000357,0.00000339,0.00000165,0.00000116,0.0000
 0477,0.00000254,0.00000112,0.00000192,-0.01284729,-0.01247623,-0.02151
 840,-0.07189564,-0.04587619,-0.07910532,0.00416257,0.00593709,0.009091
 48,0.08308635,-0.00004230,0.00003963,-0.00006997,0.00000357,0.00000228
 ,0.00000370,0.00000116,-0.00000125,0.00000170,0.00000112,-0.00000018,0
 .00000067,0.00227906,0.00233458,0.00195477,-0.04481317,-0.10851153,-0.
 11325967,0.00590180,0.00834745,0.01282556,0.04755781,0.10911076,-0.000
 07310,-0.00007015,-0.00004097,0.00000339,0.00000370,0.00000187,0.00000
 477,0.00000170,0.00000536,0.00000192,0.00000067,0.00000058,0.00392913,
 0.00194950,0.00456451,-0.07727612,-0.11325860,-0.23814403,-0.00911393,
 -0.01291936,-0.01602935,0.08203279,0.12090484,0.24748448,-0.00254887,0
 .00033465,-0.00148968,-0.00072387,-0.00028261,-0.00049030,-0.00001856,
 0.00000634,-0.00001714,0.00000776,-0.00000076,0.00000339,-0.01284658,0
 .02487423,-0.00004610,-0.07188944,0.09143741,-0.00017837,0.00416216,-0
 .01084424,-0.00055429,0.00416199,-0.01084165,0.00059611,0.08307970,0.0
 0033465,0.00026347,0.00017440,-0.00028261,-0.00002437,-0.00017332,0.00
 000634,-0.00000451,0.00000656,-0.00000076,-0.00000156,-0.00000027,-0.0
 0454161,0.00569692,-0.00000799,0.08932172,-0.30382732,0.00049994,0.004
 90420,-0.00989425,-0.00229357,0.00494146,-0.00997560,0.00234060,-0.094
 81345,0.31760421,-0.00148968,0.00061364,-0.00072989,-0.00049030,-0.000
 17332,-0.00022514,-0.00001714,0.00000656,-0.00001990,0.00000339,-0.000
 00027,-0.00000040,0.00000861,-0.00001218,0.00120149,-0.00017234,0.0005
 0105,-0.04283439,-0.00968630,0.02345198,0.00221275,0.00966738,-0.02340
 521,0.00229424,0.00017132,-0.00053854,0.03899745,0.00326377,-0.0083100
 0,-0.00149517,0.00005319,0.00003396,-0.00002441,-0.00009639,0.00053225
 ,0.00037450,-0.00026110,-0.00150557,-0.00045670,-0.08680592,0.02660445
 ,0.00000223,-0.00809986,0.02465588,-0.00000192,-0.00254887,0.00112291,
 0.00103455,-0.00256890,0.00112773,-0.00104044,-0.00007796,0.00008448,-
 0.00000009,0.58035480,0.00544952,-0.01053222,0.00210217,0.00003396,-0.
 00013361,-0.00006796,0.00017502,-0.00099278,-0.00175739,-0.00114830,-0
 .00216040,-0.00127646,0.02660315,-0.15265536,0.00000370,-0.00286374,-0
 .00039659,-0.00000062,0.00112291,-0.00014039,-0.00040752,0.00112773,-0
 .00013834,0.00040837,0.00008448,-0.00008149,0.00000009,0.06053759,0.43
 054503,0.00644877,-0.02036778,0.00001339,-0.00002441,-0.00006796,0.000
 00107,0.00058075,-0.00190323,-0.00193478,-0.00066295,-0.00113058,-0.00
 060226,-0.00000031,0.00000147,-0.07740277,-0.00000004,0.00000397,0.001
 24139,0.00103455,-0.00084677,-0.00032603,-0.00104044,0.00084418,-0.000
 32523,-0.00000009,0.00000022,0.00008015,0.00000558,-0.00000821,0.60176
 423,0.00005319,0.00000415,-0.00004159,-0.00000058,0.,0.,-0.00000165,0.
 ,0.,-0.00000004,0.00000295,0.00000237,0.00383274,0.00816707,0.00901535
 ,-0.00111519,0.00163507,0.00114295,-0.00001856,0.00001169,0.00001406,-
 0.00073177,0.00057080,0.00000040,0.00000165,-0.00000473,-0.00000138,-0
 .07562655,-0.04596923,-0.08012604,0.07598101,0.00000415,-0.00009144,-0
 .00009229,0.,0.00000295,0.00000205,0.,0.00000205,0.00000509,0.00000295
 ,0.00000393,0.00000442,-0.00653610,-0.01435541,-0.01966315,0.00163507,
 -0.00158224,-0.00069607,0.00001169,-0.00001035,-0.00000995,0.00057080,
 -0.00032666,-0.00000027,-0.00000473,0.00000518,0.00000201,-0.04702681,
 -0.10430492,-0.11233173,0.04488060,0.11570938,-0.00004159,-0.00009229,
 -0.00004110,0.,0.00000205,0.00000058,0.,0.00000509,0.00000536,0.000002
 37,0.00000442,0.00000187,0.00052395,0.00435803,0.00457455,0.00073025,-
 0.00084195,-0.00032563,0.00001406,-0.00000995,-0.00001401,0.00000040,-
 0.00000027,0.00007644,-0.00000138,0.00000201,-0.00000107,-0.08073789,-
 0.11060468,-0.23862004,0.08634124,0.11763014,0.24799544,-0.00009666,-0
 .00059057,0.00013883,-0.00000165,0.,0.,0.00007595,-0.00000009,-0.00000
 004,-0.00001013,-0.00001517,-0.00000219,0.00383555,0.00816957,-0.00901
 562,-0.00111537,0.00163588,-0.00114281,-0.00072391,0.00056607,0.000000
 40,-0.00001901,0.00001200,-0.00001446,0.00000165,-0.00000473,0.0000013
 8,-0.07568063,-0.04601810,0.08017566,0.00416225,0.00591786,-0.00909849
 ,0.07603353,-0.00059057,-0.00328296,-0.00043416,0.,0.00000893,0.000001
 12,-0.00000009,-0.00082798,-0.00052189,-0.00001517,-0.00003057,-0.0000
 0406,-0.00654248,-0.01435657,0.01965744,0.00163592,-0.00158344,0.00069
 660,0.00056607,-0.00032523,-0.00000027,0.00001200,-0.00001053,0.000010
 22,-0.00000473,0.00000518,-0.00000201,-0.04707688,-0.10433633,0.112336
 01,0.00592090,0.00834785,-0.01286992,0.04493700,0.11573834,-0.00027382
 ,-0.00058004,0.00035678,0.,0.00000112,-0.00000152,-0.00000004,-0.00052
 189,-0.00022536,-0.00000219,-0.00000406,-0.00000263,-0.00052515,-0.004
 35762,0.00457267,-0.00073043,0.00084239,-0.00032559,0.00000040,-0.0000
 0027,0.00007560,-0.00001446,0.00001022,-0.00001432,0.00000138,-0.00000
 201,-0.00000103,0.08078676,0.11060847,-0.23853253,0.00910626,0.0128754
 9,-0.01602944,-0.08639372,-0.11763528,0.24790333,-0.00026119,0.0011487
 5,0.00066318,-0.00000004,-0.00000353,-0.00000138,-0.00001013,0.0000095
 1,0.00001209,0.00007609,0.,0.,-0.00275263,-0.00097310,-0.00000071,-0.0
 0013419,0.00006457,0.,0.00000776,-0.00000254,-0.00000237,0.00000776,-0
 .00000254,0.00000237,0.00000254,-0.00000223,0.,-0.33486468,-0.00364464
 ,-0.00004980,-0.00650451,0.00115017,0.00199141,-0.00651245,0.00115093,
 -0.00199422,0.35114076,0.00114875,-0.00203514,-0.00134983,-0.00000353,
 0.00000625,0.00000312,0.00000951,-0.00001321,-0.00001419,0.,-0.0008289
 2,-0.00052243,0.02844337,-0.00439756,0.00000437,0.00006457,-0.00002530
 ,0.,-0.00000254,-0.00000094,0.00000062,-0.00000254,-0.00000094,-0.0000
 0062,-0.00000223,0.00000098,0.,-0.00152958,-0.04085360,0.00000085,-0.0
 1461361,0.00073543,0.00131199,-0.01461687,0.00073578,-0.00131716,-0.00
 004918,0.04954613,0.00107556,-0.00120404,-0.00072851,-0.00000138,0.000
 00312,-0.00000040,0.00001209,-0.00001419,-0.00002013,0.,-0.00052243,-0
 .00022549,0.00000107,-0.00000036,0.00120216,0.,0.,0.00008015,-0.000002
 37,0.00000062,-0.00000103,0.00000237,-0.00000062,-0.00000107,0.,0.,-0.
 00000058,-0.00004900,0.00000031,-0.04283434,-0.02531692,0.00131466,0.0
 0224974,0.02531178,-0.00131449,0.00225733,0.00005297,0.00000062,0.0389
 9705,0.00326390,0.00286017,-0.00794448,-0.00009644,0.00005824,0.000648
 23,0.00005319,-0.00003811,0.00001723,-0.00026106,0.00035723,-0.0015322
 1,-0.08680962,-0.01330497,0.02304156,-0.00810098,-0.01232602,0.0213532
 9,-0.00007796,-0.00004217,0.00007319,-0.00254900,-0.00145733,0.0004550
 9,-0.00256899,0.00033732,0.00149678,0.00326377,0.00544947,-0.00644806,
 -0.00009621,-0.00059053,0.00027355,0.00005319,0.00000415,0.00004164,-0
 .00026088,0.00114799,-0.00107547,0.58035677,0.00286009,0.00528610,-0.0
 1123466,0.00041546,-0.00011420,-0.00139597,-0.00003811,0.00002624,0.00
 002432,0.,0.00005047,0.00014584,-0.01330256,-0.09621237,0.03258398,0.0
 0143221,0.00083374,0.00070548,-0.00004217,0.00003985,0.00006984,-0.001
 45733,-0.00082262,0.00045277,0.00033732,0.00026387,-0.00061199,-0.0083
 1090,-0.01053217,0.02036769,-0.00059057,-0.00328541,0.00058017,0.00000
 415,-0.00009144,0.00009229,0.00114799,-0.00203367,0.00120341,-0.030273
 24,0.55895827,0.00794457,0.01123462,-0.01580502,0.00044197,-0.00125009
 ,-0.00281318,0.00001723,0.00002432,-0.00015878,-0.00132595,0.,-0.00281
 341,0.02304294,0.03258273,-0.13384201,-0.00248032,0.00071030,0.0000121
 8,0.00007319,0.00006997,-0.00004119,0.00045509,0.00001348,0.00035633,0
 .00149678,-0.00017618,-0.00072730,0.00149499,-0.00210208,0.00001334,-0
 .00013878,0.00043438,0.00035687,0.00004159,0.00009229,-0.00004106,-0.0
 0066282,0.00134929,-0.00072882,0.05242523,0.07413896,0.47334934,0.0000
 5319,-0.00003811,-0.00001723,-0.00000165,0.,0.,-0.00000058,0.,0.,-0.00
 000004,0.00000058,0.00000375,0.00383609,0.00372314,0.01158404,-0.00111
 559,0.00017181,0.00198833,0.00000165,0.00000116,-0.00000477,-0.0007240
 9,-0.00028342,0.00049008,-0.00001901,0.00000652,0.00001763,-0.00009657
 ,0.00017502,-0.00058075,0.00007604,0.00000009,-0.00000004,-0.00000165,
 0.,0.,-0.00001013,0.00000946,-0.00001205,-0.07567983,-0.04642517,-0.07
 993776,0.07603233,-0.00003811,0.00002628,-0.00002432,0.,0.00000013,0.0
 0000397,0.,-0.00000058,0.,0.00000058,-0.00000143,0.00000134,0.00372515
 ,0.00646577,0.01637894,-0.00018533,0.00002637,0.00008693,0.00000116,-0
 .00000125,-0.00000170,-0.00028342,-0.00002486,0.00017368,0.00000652,-0
 .00000455,-0.00000674,0.00053238,-0.00099247,0.00190278,0.00000009,-0.
 00082856,0.00052221,0.,0.00000205,-0.00000509,0.00000946,-0.00001316,0
 .00001415,-0.04642481,-0.10845039,-0.11298406,0.05235106,0.11299223,-0
 .00001723,-0.00002432,-0.00015878,0.,0.00000397,0.00000727,0.,0.,0.000
 00411,0.00000375,0.00000134,0.00000727,-0.00540311,-0.00763630,-0.0162
 5002,0.00178216,0.00023272,-0.00193536,-0.00000477,-0.00000170,0.00000
 536,0.00049008,0.00017368,-0.00022478,0.00001763,-0.00000674,-0.000020
 30,-0.00037445,0.00175690,-0.00193411,-0.00000004,0.00052221,-0.000225
 45,0.,-0.00000509,0.00000536,-0.00001205,0.00001415,-0.00002004,-0.081
 15960,-0.11471124,-0.23442097,0.08210919,0.11604925,0.25065341,-0.0002
 6092,0.00000004,0.00132560,-0.00001013,0.00000571,0.00001424,-0.000000
 04,0.00000054,-0.00000375,0.00007600,0.,0.,-0.00275321,0.00048722,-0.0
 0084239,-0.00013419,-0.00003226,0.00005596,0.00000254,0.00000112,-0.00
 000192,0.00000776,0.00000330,-0.00000103,0.00000776,-0.00000076,-0.000
 00339,-0.00026133,-0.00114870,0.00066322,-0.00001017,-0.00001522,0.000
 00219,-0.00000004,0.00000299,-0.00000237,0.00007604,-0.00000004,0.,-0.
 33486455,0.00186918,-0.00313788,-0.00651218,0.00115169,0.00199364,0.35
 114090,0.00035740,0.00005034,-0.00000022,0.00000571,-0.00000611,-0.000
 01004,0.00000054,-0.00000143,-0.00000134,0.,0.00007600,-0.00000009,-0.
 01422220,-0.00019622,0.00242534,-0.00003226,0.00005377,0.00004565,0.00
 000112,-0.00000022,-0.00000067,0.00000330,-0.00000045,-0.00000036,-0.0
 0000076,-0.00000156,0.00000027,-0.00150584,-0.00216072,0.00113116,-0.0
 0001522,-0.00003070,0.00000411,0.00000299,0.00000393,-0.00000442,-0.00
 000004,-0.00082838,0.00052230,0.00081129,-0.04233856,-0.00085712,-0.01
 461280,0.00073761,0.00131515,-0.00002521,0.04163446,0.00153190,-0.0001
 4615,-0.00281251,0.00001424,-0.00001004,-0.00002713,-0.00000375,-0.000
 00134,0.00000727,0.,-0.00000009,-0.00112951,0.02463169,0.00242057,-0.0
 0299874,0.00005592,0.00004565,0.00000107,-0.00000192,-0.00000067,0.000
 00058,-0.00000103,-0.00000036,-0.00000152,-0.00000339,0.00000027,-0.00
 000040,0.00045705,0.00127696,-0.00060253,0.00000219,0.00000411,-0.0000
 0263,-0.00000237,-0.00000442,0.00000187,0.,0.00052230,-0.00022563,-0.0
 0130569,-0.00085766,-0.04134809,-0.02531424,0.00131846,0.00225523,-0.0
 0006243,-0.00456790,0.04690610,-0.00009621,0.00041542,-0.00044188,0.00
 007604,0.,0.00000009,-0.00000165,0.,0.,-0.00001013,0.00000571,-0.00001
 428,0.00383274,-0.01189244,0.00256560,-0.00111537,-0.00180742,0.000844
 62,0.00000165,0.00000357,-0.00000339,-0.00001856,-0.00001798,0.0000030
 8,-0.00073186,-0.00028574,0.00049414,0.00005319,0.00003396,0.00002441,
 -0.00000165,0.,0.,-0.00000058,0.,0.,-0.00000004,-0.00000353,0.00000138
 ,-0.07562525,0.09237369,0.00024999,0.00416199,-0.01084642,0.00057486,-
 0.00650419,0.02923199,0.00000183,0.07597994,0.00005828,-0.00011433,0.0
 0125054,0.,0.00007604,0.,0.,0.00000013,-0.00000397,0.00000571,-0.00000
 611,0.00001009,0.00281403,-0.00678480,0.00001272,-0.00145006,-0.001305
 69,0.00100153,0.00000357,0.00000223,-0.00000370,-0.00001798,-0.0000217
 3,0.00000339,-0.00028574,-0.00002454,0.00017471,0.00003396,-0.00013361
 ,0.00006796,0.,0.00000893,-0.00000112,0.,0.00000295,-0.00000205,-0.000
 00353,0.00000625,-0.00000312,0.09343145,-0.30157771,-0.00328090,0.0049
 2066,-0.00993321,0.00231601,-0.00229959,0.00300824,0.00000031,-0.09721
 077,0.31679702,-0.00064809,0.00139633,-0.00281403,0.00000009,0.,-0.001
 13032,0.,-0.00000397,0.00000727,-0.00001428,0.00001009,-0.00002718,-0.
 00592183,0.02403309,-0.00299610,0.00105097,0.00085565,-0.00060209,-0.0
 0000339,-0.00000370,0.00000187,0.00000308,0.00000339,-0.00000263,0.000
 49414,0.00017471,-0.00022563,0.00002441,0.00006796,0.00000107,0.,-0.00
 000112,-0.00000152,0.,-0.00000205,0.00000058,0.00000138,-0.00000312,-0
 .00000040,-0.00036026,-0.00155323,-0.04134823,0.00967389,-0.02342980,0
 .00225184,0.00000031,-0.00000179,-0.00002338,-0.00430046,-0.00154243,0
 .04690882\\-0.00882330,-0.01248242,-0.02162914,-0.00426753,0.01761203,
 0.00320934,-0.00425897,-0.00602656,0.01685846,0.01802354,0.00185701,0.
 00321023,0.00018187,0.00025766,0.00045109,0.02368147,-0.00000042,-0.00
 000008,-0.00875199,-0.00656228,0.01139488,-0.00875165,-0.00658699,-0.0
 1138080,-0.00875106,0.01314987,-0.00001434,-0.00789132,0.02232789,0.00
 000439,-0.00327874,-0.01044339,-0.01138864,-0.00328574,-0.01043976,0.0
 1138746,0.01531503,-0.00387031,0.00000152,-0.00789385,-0.01116863,0.01
 933258,-0.00328430,-0.00464041,-0.01473678,0.01531486,0.00193233,-0.00
 335017,-0.00327849,0.01508448,-0.00334991\\\@


 THOSE WHO TRY TO PASS CHEMISTRY OFF AS A NEW SCIENCE
 SHOW HOW LITTLE KNOWLEDGE THEY HAVE OF THE CHARACTER
 AND LITERATURE OF THE ANCIENTS.
   -- NICOLAS LEFEVRE
 "COURS DE CHYMIE" J.-N.LELOUP, PARIS, 1751
 Job cpu time:       0 days  0 hours  1 minutes 15.6 seconds.
 File lengths (MBytes):  RWF=      5 Int=      0 D2E=      0 Chk=      2 Scr=      1
 Normal termination of Gaussian 09 at Fri Feb 10 10:36:50 2017.
