 Entering Gaussian System, Link 0=g09
 Initial command:
 /mnt/data/applications/G09/g09/l1.exe "/scratch/Gau-21968.inp" -scrdir="/scratch/"
 Entering Link 1 = /mnt/data/applications/G09/g09/l1.exe PID=     21969.
  
 Copyright (c) 1988,1990,1992,1993,1995,1998,2003,2009,2013,
            Gaussian, Inc.  All Rights Reserved.
  
 This is part of the Gaussian(R) 09 program.  It is based on
 the Gaussian(R) 03 system (copyright 2003, Gaussian, Inc.),
 the Gaussian(R) 98 system (copyright 1998, Gaussian, Inc.),
 the Gaussian(R) 94 system (copyright 1995, Gaussian, Inc.),
 the Gaussian 92(TM) system (copyright 1992, Gaussian, Inc.),
 the Gaussian 90(TM) system (copyright 1990, Gaussian, Inc.),
 the Gaussian 88(TM) system (copyright 1988, Gaussian, Inc.),
 the Gaussian 86(TM) system (copyright 1986, Carnegie Mellon
 University), and the Gaussian 82(TM) system (copyright 1983,
 Carnegie Mellon University). Gaussian is a federally registered
 trademark of Gaussian, Inc.
  
 This software contains proprietary and confidential information,
 including trade secrets, belonging to Gaussian, Inc.
  
 This software is provided under written license and may be
 used, copied, transmitted, or stored only in accord with that
 written license.
  
 The following legend is applicable only to US Government
 contracts under FAR:
  
                    RESTRICTED RIGHTS LEGEND
  
 Use, reproduction and disclosure by the US Government is
 subject to restrictions as set forth in subparagraphs (a)
 and (c) of the Commercial Computer Software - Restricted
 Rights clause in FAR 52.227-19.
  
 Gaussian, Inc.
 340 Quinnipiac St., Bldg. 40, Wallingford CT 06492
  
  
 ---------------------------------------------------------------
 Warning -- This program may not be used in any manner that
 competes with the business of Gaussian, Inc. or will provide
 assistance to any competitor of Gaussian, Inc.  The licensee
 of this program is prohibited from giving any competitor of
 Gaussian, Inc. access to this program.  By using this program,
 the user acknowledges that Gaussian, Inc. is engaged in the
 business of creating and licensing software in the field of
 computational chemistry and represents and warrants to the
 licensee that it is not a competitor of Gaussian, Inc. and that
 it will not use this program in any manner prohibited above.
 ---------------------------------------------------------------
  

 Cite this work as:
 Gaussian 09, Revision D.01,
 M. J. Frisch, G. W. Trucks, H. B. Schlegel, G. E. Scuseria, 
 M. A. Robb, J. R. Cheeseman, G. Scalmani, V. Barone, B. Mennucci, 
 G. A. Petersson, H. Nakatsuji, M. Caricato, X. Li, H. P. Hratchian, 
 A. F. Izmaylov, J. Bloino, G. Zheng, J. L. Sonnenberg, M. Hada, 
 M. Ehara, K. Toyota, R. Fukuda, J. Hasegawa, M. Ishida, T. Nakajima, 
 Y. Honda, O. Kitao, H. Nakai, T. Vreven, J. A. Montgomery, Jr., 
 J. E. Peralta, F. Ogliaro, M. Bearpark, J. J. Heyd, E. Brothers, 
 K. N. Kudin, V. N. Staroverov, T. Keith, R. Kobayashi, J. Normand, 
 K. Raghavachari, A. Rendell, J. C. Burant, S. S. Iyengar, J. Tomasi, 
 M. Cossi, N. Rega, J. M. Millam, M. Klene, J. E. Knox, J. B. Cross, 
 V. Bakken, C. Adamo, J. Jaramillo, R. Gomperts, R. E. Stratmann, 
 O. Yazyev, A. J. Austin, R. Cammi, C. Pomelli, J. W. Ochterski, 
 R. L. Martin, K. Morokuma, V. G. Zakrzewski, G. A. Voth, 
 P. Salvador, J. J. Dannenberg, S. Dapprich, A. D. Daniels, 
 O. Farkas, J. B. Foresman, J. V. Ortiz, J. Cioslowski, 
 and D. J. Fox, Gaussian, Inc., Wallingford CT, 2013.
 
 ******************************************
 Gaussian 09:  EM64L-G09RevD.01 24-Apr-2013
                 7-Feb-2017 
 ******************************************
 %nprocshared=8
 Will use up to    8 processors via shared memory.
 %mem=8000MB
 %chk=C_4
 ----------------------------------------------------------------------
 #p opt=nomicro oniom(B3LYP/6-31G*:external="./sictwo_files/sictwo_g09d
 01") geom=connectivity nosymm scf(maxcyc=100)
 ----------------------------------------------------------------------
 1/14=-1,18=20,19=15,26=1,38=1,52=2,57=2/1,3;
 2/9=110,12=2,15=1,17=6,18=5,40=1/2;
 1/14=-1,18=20,19=15,26=1,38=1,52=2,53=3172/20;
 3/11=9,16=1,25=1,30=1,41=9900000,43=2,71=1/1;
 4/20=17,22=1,23=100,24=3,113=1,114=1/2;
 6/7=2,8=2,9=2,10=2/1;
 7/7=1,30=1,33=-1,44=-1/16;
 1/14=-1,18=20,19=15,26=1,52=2,53=2032/20;
 3/5=1,6=6,7=1,11=2,16=1,25=1,30=1,71=1,74=-5/1,2,3;
 4//1;
 5/5=2,7=100,38=5/2;
 6/7=2,8=2,9=2,10=2,28=1/1;
 7/7=1,30=1,33=-1/1,2,3,16;
 1/14=-1,18=20,19=15,26=1,52=2,53=1022/20;
 3/11=9,16=1,25=1,30=1,41=9900000,43=2,71=1/1;
 4/20=17,22=1,23=100,24=3,113=1,114=2/2;
 6/7=2,8=2,9=2,10=2/1;
 7/7=1,30=1,33=-1,44=-1/16;
 1/14=-1,18=20,19=15,26=1,52=2,53=3015/20;
 7/9=1,44=-1/16;
 1/14=-1,18=20,19=15,26=1,52=2/3(2);
 2/9=110,15=1/2;
 99//99;
 2/9=110,15=1/2;
 1/14=-1,18=20,19=15,26=1,52=2,53=3173/20;
 3/11=9,16=1,25=1,30=1,41=9900000,43=2,71=1/1;
 4/16=2,20=17,22=1,23=100,24=3,113=1,114=1/2;
 7/7=1,30=1,33=-1,44=-1/16;
 1/14=-1,18=20,19=15,26=1,52=2,53=2033/20;
 3/5=1,6=6,7=1,11=2,16=1,25=1,30=1,71=1,74=-5/1,2,3;
 4/5=5,16=3,69=1/1;
 5/5=2,7=100,38=5/2;
 7/7=1,30=1,33=-1/1,2,3,16;
 1/14=-1,18=20,19=15,26=1,52=2,53=1023/20;
 3/11=9,16=1,25=1,30=1,41=9900000,43=2,71=1/1;
 4/16=2,20=17,22=1,23=100,24=3,113=1,114=2/2;
 7/7=1,30=1,33=-1,44=-1/16;
 1/14=-1,18=20,19=15,26=1,52=2,53=3015/20;
 7/9=1,44=-1/16;
 1/14=-1,18=20,19=15,26=1,52=2/3(-16);
 2/9=110,15=1/2;
 99//99;
 Leave Link    1 at Tue Feb  7 16:28:06 2017, MaxMem=  1048576000 cpu:         0.9
 (Enter /mnt/data/applications/G09/g09/l101.exe)
 --------------------------------------
 ONIOM(QM:MM) OPT FREQ with SICTWO V1.0
 --------------------------------------
 Symbolic Z-matrix:
 Charge =  0 Multiplicity = 1 for low   level calculation on real  system.
 Charge =  0 Multiplicity = 1 for high  level calculation on model system.
 Charge =  0 Multiplicity = 1 for low   level calculation on model system.
 C-C_2                0    -2.36842   0.38462   0.       H 
 O-O_2                0    -1.74138   1.46353   0.16231  H 
 C-C_3                0    -3.90842   0.38462   0.       H 
 H-H_                 0    -4.26509   0.88902  -0.87365  H 
 H-H_                 0    -4.26509  -0.62419   0.       H 
 H-H_                 0    -4.26509   0.88902   0.87365  H 
 C-C_3                0    -1.60106  -0.93573  -0.19863  H 
 H-H_                 0    -1.80801  -1.59492   0.61841  H 
 H-H_                 0    -1.91129  -1.39428  -1.11426  H 
 C-C_3                0    -0.08937  -0.64736  -0.25533  L    H-H_     7     0.        0. 
 H-H_                 0     0.22537  -0.21071   0.66942  L 
 C-C_3                0     0.67586  -1.96331  -0.48837  L 
 H-H_                 0     0.36701  -2.39585  -1.41704  L 
 H-H_                 0     1.72669  -1.7641   -0.51968  L 
 H-H_                 0     0.46557  -2.64432   0.3097   L 
 C-C_3                0     0.20411   0.3285   -1.40996  L 
 H-H_                 0    -0.61954   0.33093  -2.09296  L 
 H-H_                 0     0.34466   1.31382  -1.01718  L 
 H-H_                 0     1.09113   0.01876  -1.92199  L 
 
 NAtoms=     19 NQM=       19 NQMF=       0 NMMI=      0 NMMIF=      0
                NMic=       0 NMicF=      0.
                    Isotopes and Nuclear Properties:
 (Nuclear quadrupole moments (NQMom) in fm**2, nuclear magnetic moments (NMagM)
  in nuclear magnetons)

  Atom         1           2           3           4           5           6           7           8           9          10
 IAtWgt=          12          16          12           1           1           1          12           1           1          12
 AtmWgt=  12.0000000  15.9949146  12.0000000   1.0078250   1.0078250   1.0078250  12.0000000   1.0078250   1.0078250  12.0000000
 NucSpn=           0           0           0           1           1           1           0           1           1           0
 AtZEff=   0.0000000   0.0000000   0.0000000   0.0000000   0.0000000   0.0000000   0.0000000   0.0000000   0.0000000   0.0000000
 NQMom=    0.0000000   0.0000000   0.0000000   0.0000000   0.0000000   0.0000000   0.0000000   0.0000000   0.0000000   0.0000000
 NMagM=    0.0000000   0.0000000   0.0000000   2.7928460   2.7928460   2.7928460   0.0000000   2.7928460   2.7928460   0.0000000
 AtZNuc=   6.0000000   8.0000000   6.0000000   1.0000000   1.0000000   1.0000000   6.0000000   1.0000000   1.0000000   6.0000000

  Atom        11          12          13          14          15          16          17          18          19
 IAtWgt=           1          12           1           1           1          12           1           1           1
 AtmWgt=   1.0078250  12.0000000   1.0078250   1.0078250   1.0078250  12.0000000   1.0078250   1.0078250   1.0078250
 NucSpn=           1           0           1           1           1           0           1           1           1
 AtZEff=   0.0000000   0.0000000   0.0000000   0.0000000   0.0000000   0.0000000   0.0000000   0.0000000   0.0000000
 NQMom=    0.0000000   0.0000000   0.0000000   0.0000000   0.0000000   0.0000000   0.0000000   0.0000000   0.0000000
 NMagM=    2.7928460   0.0000000   2.7928460   2.7928460   2.7928460   0.0000000   2.7928460   2.7928460   2.7928460
 AtZNuc=   1.0000000   6.0000000   1.0000000   1.0000000   1.0000000   6.0000000   1.0000000   1.0000000   1.0000000
 Leave Link  101 at Tue Feb  7 16:28:07 2017, MaxMem=  1048576000 cpu:         3.0
 (Enter /mnt/data/applications/G09/g09/l103.exe)

 GradGradGradGradGradGradGradGradGradGradGradGradGradGradGradGradGradGrad
 Berny optimization.
 Initialization pass.
                           ----------------------------
                           !    Initial Parameters    !
                           ! (Angstroms and Degrees)  !
 --------------------------                            --------------------------
 ! Name  Definition              Value          Derivative Info.                !
 --------------------------------------------------------------------------------
 ! R1    R(1,2)                  1.2584         estimate D2E/DX2                !
 ! R2    R(1,3)                  1.54           estimate D2E/DX2                !
 ! R3    R(1,7)                  1.54           estimate D2E/DX2                !
 ! R4    R(3,4)                  1.07           estimate D2E/DX2                !
 ! R5    R(3,5)                  1.07           estimate D2E/DX2                !
 ! R6    R(3,6)                  1.07           estimate D2E/DX2                !
 ! R7    R(7,8)                  1.07           estimate D2E/DX2                !
 ! R8    R(7,9)                  1.07           estimate D2E/DX2                !
 ! R9    R(7,10)                 1.54           estimate D2E/DX2                !
 ! R10   R(10,11)                1.07           estimate D2E/DX2                !
 ! R11   R(10,12)                1.54           estimate D2E/DX2                !
 ! R12   R(10,16)                1.54           estimate D2E/DX2                !
 ! R13   R(12,13)                1.07           estimate D2E/DX2                !
 ! R14   R(12,14)                1.07           estimate D2E/DX2                !
 ! R15   R(12,15)                1.07           estimate D2E/DX2                !
 ! R16   R(16,17)                1.07           estimate D2E/DX2                !
 ! R17   R(16,18)                1.07           estimate D2E/DX2                !
 ! R18   R(16,19)                1.07           estimate D2E/DX2                !
 ! A1    A(2,1,3)              119.8865         estimate D2E/DX2                !
 ! A2    A(2,1,7)              120.2269         estimate D2E/DX2                !
 ! A3    A(3,1,7)              119.8865         estimate D2E/DX2                !
 ! A4    A(1,3,4)              109.4712         estimate D2E/DX2                !
 ! A5    A(1,3,5)              109.4712         estimate D2E/DX2                !
 ! A6    A(1,3,6)              109.4712         estimate D2E/DX2                !
 ! A7    A(4,3,5)              109.4713         estimate D2E/DX2                !
 ! A8    A(4,3,6)              109.4712         estimate D2E/DX2                !
 ! A9    A(5,3,6)              109.4712         estimate D2E/DX2                !
 ! A10   A(1,7,8)              109.4712         estimate D2E/DX2                !
 ! A11   A(1,7,9)              109.4712         estimate D2E/DX2                !
 ! A12   A(1,7,10)             109.4712         estimate D2E/DX2                !
 ! A13   A(8,7,9)              109.4713         estimate D2E/DX2                !
 ! A14   A(8,7,10)             109.4712         estimate D2E/DX2                !
 ! A15   A(9,7,10)             109.4712         estimate D2E/DX2                !
 ! A16   A(7,10,11)            109.4712         estimate D2E/DX2                !
 ! A17   A(7,10,12)            109.4712         estimate D2E/DX2                !
 ! A18   A(7,10,16)            109.4712         estimate D2E/DX2                !
 ! A19   A(11,10,12)           109.4712         estimate D2E/DX2                !
 ! A20   A(11,10,16)           109.4712         estimate D2E/DX2                !
 ! A21   A(12,10,16)           109.4713         estimate D2E/DX2                !
 ! A22   A(10,12,13)           109.4712         estimate D2E/DX2                !
 ! A23   A(10,12,14)           109.4712         estimate D2E/DX2                !
 ! A24   A(10,12,15)           109.4712         estimate D2E/DX2                !
 ! A25   A(13,12,14)           109.4713         estimate D2E/DX2                !
 ! A26   A(13,12,15)           109.4712         estimate D2E/DX2                !
 ! A27   A(14,12,15)           109.4712         estimate D2E/DX2                !
 ! A28   A(10,16,17)           109.4712         estimate D2E/DX2                !
 ! A29   A(10,16,18)           109.4712         estimate D2E/DX2                !
 ! A30   A(10,16,19)           109.4712         estimate D2E/DX2                !
 ! A31   A(17,16,18)           109.4713         estimate D2E/DX2                !
 ! A32   A(17,16,19)           109.4712         estimate D2E/DX2                !
 ! A33   A(18,16,19)           109.4712         estimate D2E/DX2                !
 ! D1    D(2,1,3,4)             68.5551         estimate D2E/DX2                !
 ! D2    D(2,1,3,5)           -171.4449         estimate D2E/DX2                !
 ! D3    D(2,1,3,6)            -51.4449         estimate D2E/DX2                !
 ! D4    D(7,1,3,4)           -111.4449         estimate D2E/DX2                !
 ! D5    D(7,1,3,5)              8.5551         estimate D2E/DX2                !
 ! D6    D(7,1,3,6)            128.5551         estimate D2E/DX2                !
 ! D7    D(2,1,7,8)            116.0912         estimate D2E/DX2                !
 ! D8    D(2,1,7,9)           -123.9088         estimate D2E/DX2                !
 ! D9    D(2,1,7,10)            -3.9088         estimate D2E/DX2                !
 ! D10   D(3,1,7,8)            -63.9088         estimate D2E/DX2                !
 ! D11   D(3,1,7,9)             56.0912         estimate D2E/DX2                !
 ! D12   D(3,1,7,10)           176.0912         estimate D2E/DX2                !
 ! D13   D(1,7,10,11)           61.3716         estimate D2E/DX2                !
 ! D14   D(1,7,10,12)         -178.6284         estimate D2E/DX2                !
 ! D15   D(1,7,10,16)          -58.6284         estimate D2E/DX2                !
 ! D16   D(8,7,10,11)          -58.6284         estimate D2E/DX2                !
 ! D17   D(8,7,10,12)           61.3716         estimate D2E/DX2                !
 ! D18   D(8,7,10,16)         -178.6284         estimate D2E/DX2                !
 ! D19   D(9,7,10,11)         -178.6284         estimate D2E/DX2                !
 ! D20   D(9,7,10,12)          -58.6285         estimate D2E/DX2                !
 ! D21   D(9,7,10,16)           61.3716         estimate D2E/DX2                !
 ! D22   D(7,10,12,13)          60.4648         estimate D2E/DX2                !
 ! D23   D(7,10,12,14)        -179.5352         estimate D2E/DX2                !
 ! D24   D(7,10,12,15)         -59.5352         estimate D2E/DX2                !
 ! D25   D(11,10,12,13)       -179.5352         estimate D2E/DX2                !
 ! D26   D(11,10,12,14)        -59.5352         estimate D2E/DX2                !
 ! D27   D(11,10,12,15)         60.4648         estimate D2E/DX2                !
 ! D28   D(16,10,12,13)        -59.5352         estimate D2E/DX2                !
 ! D29   D(16,10,12,14)         60.4648         estimate D2E/DX2                !
 ! D30   D(16,10,12,15)       -179.5352         estimate D2E/DX2                !
 ! D31   D(7,10,16,17)         -18.5311         estimate D2E/DX2                !
 ! D32   D(7,10,16,18)         101.469          estimate D2E/DX2                !
 ! D33   D(7,10,16,19)        -138.531          estimate D2E/DX2                !
 ! D34   D(11,10,16,17)       -138.5311         estimate D2E/DX2                !
 ! D35   D(11,10,16,18)        -18.531          estimate D2E/DX2                !
 ! D36   D(11,10,16,19)        101.469          estimate D2E/DX2                !
 ! D37   D(12,10,16,17)        101.4689         estimate D2E/DX2                !
 ! D38   D(12,10,16,18)       -138.5311         estimate D2E/DX2                !
 ! D39   D(12,10,16,19)        -18.5311         estimate D2E/DX2                !
 --------------------------------------------------------------------------------
 Trust Radius=3.00D-01 FncErr=1.00D-07 GrdErr=1.00D-07
 Number of steps in this run=    100 maximum allowed number of steps=    114.
 GradGradGradGradGradGradGradGradGradGradGradGradGradGradGradGradGradGrad

 Leave Link  103 at Tue Feb  7 16:28:07 2017, MaxMem=  1048576000 cpu:         0.1
 (Enter /mnt/data/applications/G09/g09/l202.exe)
                          Input orientation:                          
 ---------------------------------------------------------------------
 Center     Atomic      Atomic             Coordinates (Angstroms)
 Number     Number       Type             X           Y           Z
 ---------------------------------------------------------------------
      1          6    10061002       -2.368421    0.384615    0.000000
      2          8    10081002       -1.741381    1.463526    0.162305
      3          6    10061003       -3.908421    0.384615    0.000000
      4          1    10011000       -4.265087    0.889018   -0.873651
      5          1    10011000       -4.265087   -0.624190    0.000000
      6          1    10011000       -4.265088    0.889018    0.873651
      7          6    10061003       -1.601064   -0.935730   -0.198625
      8          1    10011000       -1.808014   -1.594917    0.618408
      9          1    10011000       -1.911285   -1.394283   -1.114263
     10          6    10061003       -0.089366   -0.647364   -0.255334
     11          1    10011000        0.225375   -0.210711    0.669421
     12          6    10061003        0.675861   -1.963313   -0.488370
     13          1    10011000        0.367010   -2.395848   -1.417039
     14          1    10011000        1.726686   -1.764103   -0.519683
     15          1    10011000        0.465569   -2.644317    0.309697
     16          6    10061003        0.204112    0.328496   -1.409963
     17          1    10011000       -0.619542    0.330934   -2.092963
     18          1    10011000        0.344661    1.313821   -1.017178
     19          1    10011000        1.091126    0.018765   -1.921990
 ---------------------------------------------------------------------
                    Distance matrix (angstroms):
                    1          2          3          4          5
     1  C    0.000000
     2  O    1.258400   0.000000
     3  C    1.540000   2.426202   0.000000
     4  H    2.148263   2.787895   1.070000   0.000000
     5  H    2.148263   3.279329   1.070000   1.747303   0.000000
     6  H    2.148263   2.684245   1.070000   1.747303   1.747303
     7  C    1.540000   2.430306   2.665832   3.298846   2.689522
     8  H    2.148263   3.092983   2.951726   3.799129   2.713291
     9  H    2.148263   3.134575   2.897346   3.288121   2.715697
    10  C    2.514810   2.712827   3.964260   4.492152   4.183584
    11  H    2.744142   2.632178   4.229752   4.873882   4.558875
    12  C    3.875426   4.243779   5.173675   5.718147   5.142443
    13  H    4.149887   4.672730   5.293230   5.704555   5.157819
    14  H    4.653704   4.786458   6.053222   6.562446   6.121342
    15  H    4.159548   4.665482   5.329365   6.021950   5.153245
    16  C    2.934122   2.746864   4.347881   4.536029   4.782191
    17  H    2.727994   2.761797   3.898731   3.884351   4.310773
    18  H    3.042842   2.401075   4.470658   4.631505   5.102972
    19  H    3.974464   3.801936   5.368740   5.526788   5.726820
                    6          7          8          9         10
     6  H    0.000000
     7  C    3.402426   0.000000
     8  H    3.503183   1.070000   0.000000
     9  H    3.834795   1.070000   1.747303   0.000000
    10  C    4.590395   1.540000   2.148263   2.148263   0.000000
    11  H    4.627674   2.148263   2.460345   3.024514   1.070000
    12  C    5.865481   2.514809   2.744141   2.721922   1.540000
    13  H    6.123229   2.736749   3.084683   2.507077   2.148263
    14  H    6.699387   3.444300   3.717255   3.704744   2.148263
    15  H    5.931409   2.729218   2.523039   3.039684   2.148263
    16  C    5.050032   2.514809   3.444192   2.744141   1.540000
    17  H    4.733103   2.481197   3.531700   2.367029   2.148263
    18  H    5.000548   3.084859   3.971135   3.525981   2.148263
    19  H    6.104260   3.336006   4.178829   3.415202   2.148263
                   11         12         13         14         15
    11  H    0.000000
    12  C    2.148263   0.000000
    13  H    3.024599   1.070000   0.000000
    14  H    2.465955   1.070000   1.747303   0.000000
    15  H    2.471747   1.070000   1.747303   1.747303   0.000000
    16  C    2.148263   2.514810   2.729219   2.736750   3.444301
    17  H    2.939052   3.084859   2.977499   3.516984   3.975218
    18  H    2.276629   3.336006   3.731224   3.410441   4.176371
    19  H    2.741824   2.481199   2.570929   2.355635   3.530404
                   16         17         18         19
    16  C    0.000000
    17  H    1.070000   0.000000
    18  H    1.070000   1.747303   0.000000
    19  H    1.070000   1.747303   1.747303   0.000000
 Symmetry turned off by external request.
 Stoichiometry    C6H12O
 Framework group  C1[X(C6H12O)]
 Deg. of freedom    51
 Full point group                 C1      NOp   1
 Rotational constants (GHZ):      4.9521336      1.5756915      1.3297016
 Leave Link  202 at Tue Feb  7 16:28:07 2017, MaxMem=  1048576000 cpu:         0.0
 (Enter /mnt/data/applications/G09/g09/l120.exe)
 ONIOM: Cut between C /H    10 and C     7 factor= 0.723886 0.723886
 ONIOM: saving gridpoint 17
 ONIOM: generating point  3 -- low level on real system.
 Leave Link  120 at Tue Feb  7 16:28:07 2017, MaxMem=  1048576000 cpu:         0.0
 (Enter /mnt/data/applications/G09/g09/l301.exe)
 Standard basis: STO-3G (5D, 7F)
 Ernie: Thresh=  0.10000D-02 Tol=  0.10000D-05 Strict=F.
    47 basis functions,   141 primitive gaussians,    47 cartesian basis functions
    28 alpha electrons       28 beta electrons
       nuclear repulsion energy       315.0201020380 Hartrees.
 IExCor=    0 DFT=F Ex=HF Corr=None ExCW=0 ScaHFX=  1.000000
 ScaDFX=  1.000000  1.000000  1.000000  1.000000 ScalE2=  1.000000  1.000000
 IRadAn=      0 IRanWt=     -1 IRanGd=            0 ICorTp=0 IEmpDi=  4
 NAtoms=   19 NActive=   19 NUniq=   19 SFac= 1.00D+00 NAtFMM=   60 NAOKFM=F Big=F
 Integral buffers will be    131072 words long.
 Raffenetti 1 integral format.
 Two-electron integral symmetry is turned off.
 Leave Link  301 at Tue Feb  7 16:28:07 2017, MaxMem=  1048576000 cpu:         0.6
 (Enter /mnt/data/applications/G09/g09/l402.exe)
 External calculation of energy and first derivatives.
 Running external command "./sictwo_files/sictwo_g09d01 R"
         input file       "/scratch/Gau-21969.EIn"
         output file      "/scratch/Gau-21969.EOu"
         message file     "/scratch/Gau-21969.EMs"
         fchk file        "/scratch/Gau-21969.EFC"
         mat. el file     "/scratch/Gau-21969.EUF"

---------------------------- SICTWO Version 1.0 STARTED -----------------------------

MM calculations started
MM calculations finished ....
Information recovery

---------------------------- SICTWO Version 1.0 FINISHED -----------------------------

 Recovered energy= 0.254050277819E-01 dipole=     -0.764435156449     -1.314450775963     -0.197895462529
 Energy=    2.540502778E-02 NIter=   0.
 Dipole moment=      -0.764435      -1.314451      -0.197895
 Leave Link  402 at Tue Feb  7 16:28:13 2017, MaxMem=  1048576000 cpu:        39.4
 (Enter /mnt/data/applications/G09/g09/l601.exe)
 Leave Link  601 at Tue Feb  7 16:28:14 2017, MaxMem=  1048576000 cpu:         0.2
 (Enter /mnt/data/applications/G09/g09/l716.exe)
 Dipole        =-7.64435156D-01-1.31445078D+00-1.97895463D-01
 Cartesian Forces:  Max     0.029669971 RMS     0.011999724
 Leave Link  716 at Tue Feb  7 16:28:14 2017, MaxMem=  1048576000 cpu:         0.2
 (Enter /mnt/data/applications/G09/g09/l120.exe)
 SvSCFP did not find density file   528.
 ONIOM: saving gridpoint  3
 ONIOM: restoring gridpoint 17
 ONIOM: generating point  2 -- high level on model system.
 Leave Link  120 at Tue Feb  7 16:28:14 2017, MaxMem=  1048576000 cpu:         0.0
 (Enter /mnt/data/applications/G09/g09/l301.exe)
 Standard basis: 6-31G(d) (6D, 7F)
 Ernie: Thresh=  0.10000D-02 Tol=  0.10000D-05 Strict=F.
    72 basis functions,   136 primitive gaussians,    72 cartesian basis functions
    16 alpha electrons       16 beta electrons
       nuclear repulsion energy       117.6008444183 Hartrees.
 IExCor=  402 DFT=T Ex+Corr=B3LYP ExCW=0 ScaHFX=  0.200000
 ScaDFX=  0.800000  0.720000  1.000000  0.810000 ScalE2=  1.000000  1.000000
 IRadAn=      0 IRanWt=     -1 IRanGd=            0 ICorTp=0 IEmpDi=  4
 NAtoms=   19 NActive=   10 NUniq=   10 SFac= 1.00D+00 NAtFMM=   60 NAOKFM=F Big=F
 Integral buffers will be    131072 words long.
 Raffenetti 2 integral format.
 Two-electron integral symmetry is turned off.
 Leave Link  301 at Tue Feb  7 16:28:14 2017, MaxMem=  1048576000 cpu:         0.4
 (Enter /mnt/data/applications/G09/g09/l302.exe)
 NPDir=0 NMtPBC=     1 NCelOv=     1 NCel=       1 NClECP=     1 NCelD=      1
         NCelK=      1 NCelE2=     1 NClLst=     1 CellRange=     0.0.
 One-electron integrals computed using PRISM.
 NBasis=    72 RedAO= T EigKep=  5.47D-03  NBF=    72
 NBsUse=    72 1.00D-06 EigRej= -1.00D+00 NBFU=    72
 Precomputing XC quadrature grid using
 IXCGrd= 4 IRadAn=           0 IRanWt=          -1 IRanGd=           0 AccXCQ= 0.00D+00.
 Generated NRdTot=       0 NPtTot=           0 NUsed=           0 NTot=          32
 NSgBfM=    72    72    72    72    72 MxSgAt=    10 MxSgA2=    10.
 Leave Link  302 at Tue Feb  7 16:28:14 2017, MaxMem=  1048576000 cpu:         1.9
 (Enter /mnt/data/applications/G09/g09/l303.exe)
 DipDrv:  MaxL=1.
 Leave Link  303 at Tue Feb  7 16:28:14 2017, MaxMem=  1048576000 cpu:         0.3
 (Enter /mnt/data/applications/G09/g09/l401.exe)
 ExpMin= 1.61D-01 ExpMax= 5.48D+03 ExpMxC= 8.25D+02 IAcc=1 IRadAn=         1 AccDes= 0.00D+00
 Harris functional with IExCor=  402 and IRadAn=       1 diagonalized for initial guess.
 HarFok:  IExCor=  402 AccDes= 0.00D+00 IRadAn=         1 IDoV= 1 UseB2=F ITyADJ=14
 ICtDFT=  3500011 ScaDFX=  1.000000  1.000000  1.000000  1.000000
 FoFCou: FMM=F IPFlag=           0 FMFlag=      100000 FMFlg1=           0
         NFxFlg=           0 DoJE=T BraDBF=F KetDBF=T FulRan=T
         wScrn=  0.000000 ICntrl=     500 IOpCl=  0 I1Cent=   200000004 NGrid=           0
         NMat0=    1 NMatS0=      1 NMatT0=    0 NMatD0=    1 NMtDS0=    0 NMtDT0=    0
 Symmetry not used in FoFCou.
 Harris En= -193.203402208356    
 JPrj=0 DoOrth=F DoCkMO=F.
 Leave Link  401 at Tue Feb  7 16:28:15 2017, MaxMem=  1048576000 cpu:         1.9
 (Enter /mnt/data/applications/G09/g09/l502.exe)
 Closed shell SCF:
 Using DIIS extrapolation, IDIIS=  1040.
 Two-electron integral symmetry not used.
 Keep R1 ints in memory in canonical form, NReq=4377734.
 IVT=       28624 IEndB=       28624 NGot=  1048576000 MDV=  1045092871
 LenX=  1045092871 LenY=  1045087246
 Requested convergence on RMS density matrix=1.00D-08 within 100 cycles.
 Requested convergence on MAX density matrix=1.00D-06.
 Requested convergence on             energy=1.00D-06.
 No special actions if energy rises.
 FoFCou: FMM=F IPFlag=           0 FMFlag=           0 FMFlg1=           0
         NFxFlg=           0 DoJE=F BraDBF=F KetDBF=F FulRan=T
         wScrn=  0.000000 ICntrl=     600 IOpCl=  0 I1Cent=           0 NGrid=           0
         NMat0=    1 NMatS0=   2628 NMatT0=    0 NMatD0=    1 NMtDS0=    0 NMtDT0=    0
 Symmetry not used in FoFCou.
 Integral accuracy reduced to 1.0D-05 until final iterations.

 Cycle   1  Pass 0  IDiag  1:
 E= -192.978098666128    
 DIIS: error= 5.70D-02 at cycle   1 NSaved=   1.
 NSaved= 1 IEnMin= 1 EnMin= -192.978098666128     IErMin= 1 ErrMin= 5.70D-02
 ErrMax= 5.70D-02  0.00D+00 EMaxC= 1.00D-01 BMatC= 1.83D-01 BMatP= 1.83D-01
 IDIUse=3 WtCom= 4.30D-01 WtEn= 5.70D-01
 Coeff-Com:  0.100D+01
 Coeff-En:   0.100D+01
 Coeff:      0.100D+01
 Gap=     0.109 Goal=   None    Shift=    0.000
 GapD=    0.109 DampG=1.000 DampE=0.500 DampFc=0.5000 IDamp=-1.
 Damping current iteration by 5.00D-01
 RMSDP=1.32D-02 MaxDP=2.05D-01              OVMax= 3.20D-01

 Cycle   2  Pass 0  IDiag  1:
 E= -193.031420915876     Delta-E=       -0.053322249749 Rises=F Damp=T
 DIIS: error= 1.92D-02 at cycle   2 NSaved=   2.
 NSaved= 2 IEnMin= 2 EnMin= -193.031420915876     IErMin= 2 ErrMin= 1.92D-02
 ErrMax= 1.92D-02  0.00D+00 EMaxC= 1.00D-01 BMatC= 2.71D-02 BMatP= 1.83D-01
 IDIUse=3 WtCom= 8.08D-01 WtEn= 1.92D-01
 Coeff-Com:  0.215D+00 0.785D+00
 Coeff-En:   0.310D+00 0.690D+00
 Coeff:      0.233D+00 0.767D+00
 Gap=     0.217 Goal=   None    Shift=    0.000
 RMSDP=3.96D-03 MaxDP=6.02D-02 DE=-5.33D-02 OVMax= 2.66D-01

 Cycle   3  Pass 0  IDiag  1:
 E= -193.120657923280     Delta-E=       -0.089237007404 Rises=F Damp=F
 DIIS: error= 2.42D-02 at cycle   3 NSaved=   3.
 NSaved= 3 IEnMin= 3 EnMin= -193.120657923280     IErMin= 2 ErrMin= 1.92D-02
 ErrMax= 2.42D-02  0.00D+00 EMaxC= 1.00D-01 BMatC= 3.13D-02 BMatP= 2.71D-02
 IDIUse=2 WtCom= 0.00D+00 WtEn= 1.00D+00
 Coeff-En:   0.000D+00 0.000D+00 0.100D+01
 Coeff:      0.000D+00 0.000D+00 0.100D+01
 Gap=     0.189 Goal=   None    Shift=    0.000
 RMSDP=6.53D-03 MaxDP=1.24D-01 DE=-8.92D-02 OVMax= 2.35D-01

 Cycle   4  Pass 0  IDiag  1:
 E= -193.003261914616     Delta-E=        0.117396008664 Rises=F Damp=F
 DIIS: error= 5.85D-02 at cycle   4 NSaved=   4.
 NSaved= 4 IEnMin= 3 EnMin= -193.120657923280     IErMin= 2 ErrMin= 1.92D-02
 ErrMax= 5.85D-02  0.00D+00 EMaxC= 1.00D-01 BMatC= 1.79D-01 BMatP= 2.71D-02
 IDIUse=2 WtCom= 0.00D+00 WtEn= 1.00D+00
 Coeff-En:   0.000D+00 0.000D+00 0.787D+00 0.213D+00
 Coeff:      0.000D+00 0.000D+00 0.787D+00 0.213D+00
 Gap=     0.207 Goal=   None    Shift=    0.000
 RMSDP=3.70D-03 MaxDP=6.90D-02 DE= 1.17D-01 OVMax= 1.31D-01

 Cycle   5  Pass 0  IDiag  1:
 E= -193.139105707509     Delta-E=       -0.135843792894 Rises=F Damp=F
 DIIS: error= 1.38D-02 at cycle   5 NSaved=   5.
 NSaved= 5 IEnMin= 5 EnMin= -193.139105707509     IErMin= 5 ErrMin= 1.38D-02
 ErrMax= 1.38D-02  0.00D+00 EMaxC= 1.00D-01 BMatC= 1.09D-02 BMatP= 2.71D-02
 IDIUse=3 WtCom= 8.62D-01 WtEn= 1.38D-01
 Coeff-Com: -0.173D-01 0.539D-01 0.276D+00-0.100D+00 0.788D+00
 Coeff-En:   0.000D+00 0.000D+00 0.298D+00 0.000D+00 0.702D+00
 Coeff:     -0.149D-01 0.465D-01 0.279D+00-0.867D-01 0.776D+00
 Gap=     0.221 Goal=   None    Shift=    0.000
 RMSDP=1.17D-03 MaxDP=2.07D-02 DE=-1.36D-01 OVMax= 3.79D-02

 Cycle   6  Pass 0  IDiag  1:
 E= -193.148471130828     Delta-E=       -0.009365423318 Rises=F Damp=F
 DIIS: error= 6.12D-04 at cycle   6 NSaved=   6.
 NSaved= 6 IEnMin= 6 EnMin= -193.148471130828     IErMin= 6 ErrMin= 6.12D-04
 ErrMax= 6.12D-04  0.00D+00 EMaxC= 1.00D-01 BMatC= 2.39D-05 BMatP= 1.09D-02
 IDIUse=3 WtCom= 9.94D-01 WtEn= 6.12D-03
 Coeff-Com: -0.671D-02 0.131D-01 0.785D-01-0.306D-01 0.264D+00 0.682D+00
 Coeff-En:   0.000D+00 0.000D+00 0.000D+00 0.000D+00 0.000D+00 0.100D+01
 Coeff:     -0.666D-02 0.131D-01 0.781D-01-0.304D-01 0.262D+00 0.684D+00
 Gap=     0.221 Goal=   None    Shift=    0.000
 RMSDP=6.23D-05 MaxDP=1.28D-03 DE=-9.37D-03 OVMax= 1.99D-03

 Cycle   7  Pass 0  IDiag  1:
 E= -193.148489550874     Delta-E=       -0.000018420047 Rises=F Damp=F
 DIIS: error= 1.02D-04 at cycle   7 NSaved=   7.
 NSaved= 7 IEnMin= 7 EnMin= -193.148489550874     IErMin= 7 ErrMin= 1.02D-04
 ErrMax= 1.02D-04  0.00D+00 EMaxC= 1.00D-01 BMatC= 6.83D-07 BMatP= 2.39D-05
 IDIUse=3 WtCom= 9.99D-01 WtEn= 1.02D-03
 Coeff-Com: -0.179D-02 0.271D-02 0.165D-01-0.815D-02 0.671D-01 0.319D+00
 Coeff-Com:  0.604D+00
 Coeff-En:   0.000D+00 0.000D+00 0.000D+00 0.000D+00 0.000D+00 0.000D+00
 Coeff-En:   0.100D+01
 Coeff:     -0.179D-02 0.271D-02 0.165D-01-0.814D-02 0.670D-01 0.319D+00
 Coeff:      0.605D+00
 Gap=     0.221 Goal=   None    Shift=    0.000
 RMSDP=1.45D-05 MaxDP=1.65D-04 DE=-1.84D-05 OVMax= 2.40D-04

 Cycle   8  Pass 0  IDiag  1:
 E= -193.148490156367     Delta-E=       -0.000000605493 Rises=F Damp=F
 DIIS: error= 9.54D-06 at cycle   8 NSaved=   8.
 NSaved= 8 IEnMin= 8 EnMin= -193.148490156367     IErMin= 8 ErrMin= 9.54D-06
 ErrMax= 9.54D-06  0.00D+00 EMaxC= 1.00D-01 BMatC= 7.78D-09 BMatP= 6.83D-07
 IDIUse=1 WtCom= 1.00D+00 WtEn= 0.00D+00
 Coeff-Com: -0.723D-05-0.117D-03 0.125D-03-0.355D-03 0.182D-02 0.223D-01
 Coeff-Com:  0.668D-01 0.909D+00
 Coeff:     -0.723D-05-0.117D-03 0.125D-03-0.355D-03 0.182D-02 0.223D-01
 Coeff:      0.668D-01 0.909D+00
 Gap=     0.221 Goal=   None    Shift=    0.000
 RMSDP=1.24D-06 MaxDP=1.59D-05 DE=-6.05D-07 OVMax= 2.01D-05

 Initial convergence to 1.0D-05 achieved.  Increase integral accuracy.
 Cycle   9  Pass 1  IDiag  1:
 E= -193.148481242179     Delta-E=        0.000008914188 Rises=F Damp=F
 DIIS: error= 4.74D-06 at cycle   1 NSaved=   1.
 NSaved= 1 IEnMin= 1 EnMin= -193.148481242179     IErMin= 1 ErrMin= 4.74D-06
 ErrMax= 4.74D-06  0.00D+00 EMaxC= 1.00D-01 BMatC= 4.24D-09 BMatP= 4.24D-09
 IDIUse=1 WtCom= 1.00D+00 WtEn= 0.00D+00
 Coeff-Com:  0.100D+01
 Coeff:      0.100D+01
 Gap=     0.221 Goal=   None    Shift=    0.000
 RMSDP=1.24D-06 MaxDP=1.59D-05 DE= 8.91D-06 OVMax= 2.31D-05

 Cycle  10  Pass 1  IDiag  1:
 E= -193.148481247064     Delta-E=       -0.000000004886 Rises=F Damp=F
 DIIS: error= 4.01D-06 at cycle   2 NSaved=   2.
 NSaved= 2 IEnMin= 2 EnMin= -193.148481247064     IErMin= 2 ErrMin= 4.01D-06
 ErrMax= 4.01D-06  0.00D+00 EMaxC= 1.00D-01 BMatC= 9.96D-10 BMatP= 4.24D-09
 IDIUse=1 WtCom= 1.00D+00 WtEn= 0.00D+00
 Coeff-Com:  0.217D+00 0.783D+00
 Coeff:      0.217D+00 0.783D+00
 Gap=     0.221 Goal=   None    Shift=    0.000
 RMSDP=9.51D-07 MaxDP=1.94D-05 DE=-4.89D-09 OVMax= 3.23D-05

 Cycle  11  Pass 1  IDiag  1:
 E= -193.148481246064     Delta-E=        0.000000001000 Rises=F Damp=F
 DIIS: error= 6.91D-06 at cycle   3 NSaved=   3.
 NSaved= 3 IEnMin= 2 EnMin= -193.148481247064     IErMin= 2 ErrMin= 4.01D-06
 ErrMax= 6.91D-06  0.00D+00 EMaxC= 1.00D-01 BMatC= 2.38D-09 BMatP= 9.96D-10
 IDIUse=1 WtCom= 1.00D+00 WtEn= 0.00D+00
 Coeff-Com: -0.275D-02 0.611D+00 0.391D+00
 Coeff:     -0.275D-02 0.611D+00 0.391D+00
 Gap=     0.221 Goal=   None    Shift=    0.000
 RMSDP=5.28D-07 MaxDP=1.20D-05 DE= 1.00D-09 OVMax= 1.98D-05

 Cycle  12  Pass 1  IDiag  1:
 E= -193.148481247882     Delta-E=       -0.000000001818 Rises=F Damp=F
 DIIS: error= 4.94D-07 at cycle   4 NSaved=   4.
 NSaved= 4 IEnMin= 4 EnMin= -193.148481247882     IErMin= 4 ErrMin= 4.94D-07
 ErrMax= 4.94D-07  0.00D+00 EMaxC= 1.00D-01 BMatC= 2.67D-11 BMatP= 9.96D-10
 IDIUse=1 WtCom= 1.00D+00 WtEn= 0.00D+00
 Coeff-Com: -0.153D-01 0.269D+00 0.188D+00 0.558D+00
 Coeff:     -0.153D-01 0.269D+00 0.188D+00 0.558D+00
 Gap=     0.221 Goal=   None    Shift=    0.000
 RMSDP=7.85D-08 MaxDP=1.34D-06 DE=-1.82D-09 OVMax= 1.33D-06

 Cycle  13  Pass 1  IDiag  1:
 E= -193.148481247905     Delta-E=       -0.000000000023 Rises=F Damp=F
 DIIS: error= 1.09D-07 at cycle   5 NSaved=   5.
 NSaved= 5 IEnMin= 5 EnMin= -193.148481247905     IErMin= 5 ErrMin= 1.09D-07
 ErrMax= 1.09D-07  0.00D+00 EMaxC= 1.00D-01 BMatC= 1.25D-12 BMatP= 2.67D-11
 IDIUse=1 WtCom= 1.00D+00 WtEn= 0.00D+00
 Coeff-Com: -0.530D-02 0.793D-01 0.507D-01 0.237D+00 0.639D+00
 Coeff:     -0.530D-02 0.793D-01 0.507D-01 0.237D+00 0.639D+00
 Gap=     0.221 Goal=   None    Shift=    0.000
 RMSDP=1.70D-08 MaxDP=2.16D-07 DE=-2.33D-11 OVMax= 2.59D-07

 Cycle  14  Pass 1  IDiag  1:
 E= -193.148481247907     Delta-E=       -0.000000000002 Rises=F Damp=F
 DIIS: error= 1.71D-08 at cycle   6 NSaved=   6.
 NSaved= 6 IEnMin= 6 EnMin= -193.148481247907     IErMin= 6 ErrMin= 1.71D-08
 ErrMax= 1.71D-08  0.00D+00 EMaxC= 1.00D-01 BMatC= 3.86D-14 BMatP= 1.25D-12
 IDIUse=1 WtCom= 1.00D+00 WtEn= 0.00D+00
 Coeff-Com: -0.634D-03 0.659D-02 0.196D-02 0.390D-01 0.193D+00 0.760D+00
 Coeff:     -0.634D-03 0.659D-02 0.196D-02 0.390D-01 0.193D+00 0.760D+00
 Gap=     0.221 Goal=   None    Shift=    0.000
 RMSDP=3.43D-09 MaxDP=5.36D-08 DE=-2.27D-12 OVMax= 5.46D-08

 SCF Done:  E(RB3LYP) =  -193.148481248     A.U. after   14 cycles
            NFock= 14  Conv=0.34D-08     -V/T= 2.0097
 KE= 1.912863568993D+02 PE=-6.851792672449D+02 EE= 1.831435846793D+02
 Leave Link  502 at Tue Feb  7 16:28:16 2017, MaxMem=  1048576000 cpu:        12.4
 (Enter /mnt/data/applications/G09/g09/l601.exe)
 Copying SCF densities to generalized density rwf, IOpCl= 0 IROHF=0.

 **********************************************************************

            Population analysis using the SCF density.

 **********************************************************************

 Alpha  occ. eigenvalues --  -19.13287 -10.28256 -10.19176 -10.18842  -1.00989
 Alpha  occ. eigenvalues --   -0.76524  -0.71546  -0.53199  -0.45836  -0.44958
 Alpha  occ. eigenvalues --   -0.44702  -0.41851  -0.38584  -0.38011  -0.33403
 Alpha  occ. eigenvalues --   -0.24116
 Alpha virt. eigenvalues --   -0.02021   0.09558   0.14278   0.15121   0.15356
 Alpha virt. eigenvalues --    0.15632   0.19389   0.19868   0.27757   0.31348
 Alpha virt. eigenvalues --    0.49364   0.52817   0.56084   0.57776   0.60176
 Alpha virt. eigenvalues --    0.65888   0.66704   0.68214   0.73945   0.81903
 Alpha virt. eigenvalues --    0.86702   0.87617   0.89689   0.90246   0.92929
 Alpha virt. eigenvalues --    0.94951   0.97449   1.02213   1.10440   1.18678
 Alpha virt. eigenvalues --    1.35130   1.38609   1.44855   1.52182   1.75666
 Alpha virt. eigenvalues --    1.77793   1.79923   1.80250   1.88928   1.91563
 Alpha virt. eigenvalues --    1.98758   2.12254   2.14871   2.23979   2.25846
 Alpha virt. eigenvalues --    2.33522   2.36117   2.43115   2.56948   2.63694
 Alpha virt. eigenvalues --    2.91004   2.92168   3.88157   4.05936   4.26410
 Alpha virt. eigenvalues --    4.45451
          Condensed to atoms (all electrons):
               1          2          3          4          5          6
     1  C    4.508440   0.550456   0.307688  -0.016825  -0.021984  -0.016914
     2  O    0.550456   8.036564  -0.078933  -0.000940   0.003755   0.000132
     3  C    0.307688  -0.078933   5.324974   0.365782   0.339603   0.365162
     4  H   -0.016825  -0.000940   0.365782   0.504375  -0.027173  -0.018035
     5  H   -0.021984   0.003755   0.339603  -0.027173   0.574507  -0.027327
     6  H   -0.016914   0.000132   0.365162  -0.018035  -0.027327   0.502581
     7  C    0.328128  -0.075025  -0.119866   0.003236   0.005474   0.004078
     8  H   -0.020756   0.001288   0.003476   0.000019   0.000130  -0.000279
     9  H   -0.023041   0.001726   0.004651  -0.000141  -0.000639   0.000018
    10  H   -0.020760   0.005054   0.005323  -0.000151  -0.000105  -0.000137
               7          8          9         10
     1  C    0.328128  -0.020756  -0.023041  -0.020760
     2  O   -0.075025   0.001288   0.001726   0.005054
     3  C   -0.119866   0.003476   0.004651   0.005323
     4  H    0.003236   0.000019  -0.000141  -0.000151
     5  H    0.005474   0.000130  -0.000639  -0.000105
     6  H    0.004078  -0.000279   0.000018  -0.000137
     7  C    5.317166   0.354257   0.352928   0.353805
     8  H    0.354257   0.535447  -0.026704  -0.022014
     9  H    0.352928  -0.026704   0.542717  -0.023014
    10  H    0.353805  -0.022014  -0.023014   0.522419
 Mulliken charges:
               1
     1  C    0.425570
     2  O   -0.444078
     3  C   -0.517859
     4  H    0.189853
     5  H    0.153760
     6  H    0.190721
     7  C   -0.524180
     8  H    0.175135
     9  H    0.171498
    10  H    0.179580
    11  H    0.000000
    12  C    0.000000
    13  H    0.000000
    14  H    0.000000
    15  H    0.000000
    16  C    0.000000
    17  H    0.000000
    18  H    0.000000
    19  H    0.000000
 Sum of Mulliken charges =   0.00000
 Mulliken charges with hydrogens summed into heavy atoms:
               1
     1  C    0.425570
     2  O   -0.444078
     3  C    0.016475
     7  C    0.002034
    12  C    0.000000
    16  C    0.000000
 Electronic spatial extent (au):  <R**2>=            985.1077
 Charge=              0.0000 electrons
 Dipole moment (field-independent basis, Debye):
    X=             -1.5390    Y=             -2.4402    Z=             -0.3800  Tot=              2.9099
 Quadrupole moment (field-independent basis, Debye-Ang):
   XX=            -16.8878   YY=            -28.2782   ZZ=            -23.7593
   XY=              3.0957   XZ=              0.6469   YZ=             -0.5675
 Traceless Quadrupole moment (field-independent basis, Debye-Ang):
   XX=              6.0873   YY=             -5.3031   ZZ=             -0.7842
   XY=              3.0957   XZ=              0.6469   YZ=             -0.5675
 Octapole moment (field-independent basis, Debye-Ang**2):
  XXX=            153.2261  YYY=            -21.8782  ZZZ=              1.8597  XYY=             65.7871
  XXY=             -6.2203  XXZ=             -0.5218  XZZ=             57.7925  YZZ=             -4.7227
  YYZ=              0.0116  XYZ=              1.0077
 Hexadecapole moment (field-independent basis, Debye-Ang**3):
 XXXX=           -990.8577 YYYY=           -170.0962 ZZZZ=            -36.7196 XXXY=             37.1020
 XXXZ=             -0.6983 YYYX=             65.1422 YYYZ=            -10.5015 ZZZX=             -2.1809
 ZZZY=             -7.8875 XXYY=           -212.1340 XXZZ=           -177.3570 YYZZ=            -30.6146
 XXYZ=             -4.6363 YYXZ=              0.5236 ZZXY=             14.9772
 N-N= 1.176008444183D+02 E-N=-6.851792656100D+02  KE= 1.912863568993D+02
 No NMR shielding tensors so no spin-rotation constants.
 Leave Link  601 at Tue Feb  7 16:28:17 2017, MaxMem=  1048576000 cpu:         1.1
 (Enter /mnt/data/applications/G09/g09/l701.exe)
 Compute integral first derivatives.
 ... and contract with generalized density number  0.
 Leave Link  701 at Tue Feb  7 16:28:17 2017, MaxMem=  1048576000 cpu:         1.1
 (Enter /mnt/data/applications/G09/g09/l702.exe)
 L702 exits ... SP integral derivatives will be done elsewhere.
 Leave Link  702 at Tue Feb  7 16:28:17 2017, MaxMem=  1048576000 cpu:         0.2
 (Enter /mnt/data/applications/G09/g09/l703.exe)
 Compute integral first derivatives, UseDBF=F ICtDFT=           0.
 Integral derivatives from FoFJK, PRISM(SPDF).
 Calling FoFJK, ICntrl=      2127 FMM=F ISym2X=0 I1Cent= 0 IOpClX= 0 NMat=1 NMatS=1 NMatT=0.
 FoFJK:  IHMeth= 1 ICntrl=    2127 DoSepK=F KAlg= 0 I1Cent=   0 FoldK=F
 IRaf=         0 NMat=   1 IRICut=       1 DoRegI=T DoRafI=F ISym2E= 0.
 FoFCou: FMM=F IPFlag=           0 FMFlag=      100000 FMFlg1=         800
         NFxFlg=           0 DoJE=F BraDBF=F KetDBF=F FulRan=T
         wScrn=  0.000000 ICntrl=    2127 IOpCl=  0 I1Cent=           0 NGrid=           0
         NMat0=    1 NMatS0=      1 NMatT0=    0 NMatD0=    1 NMtDS0=    0 NMtDT0=    0
 Symmetry not used in FoFCou.
 Leave Link  703 at Tue Feb  7 16:28:17 2017, MaxMem=  1048576000 cpu:         4.1
 (Enter /mnt/data/applications/G09/g09/l716.exe)
 Dipole        =-6.05489458D-01-9.60062300D-01-1.49492233D-01
 Cartesian Forces:  Max     0.050295081 RMS     0.014081776
 Leave Link  716 at Tue Feb  7 16:28:18 2017, MaxMem=  1048576000 cpu:         0.2
 (Enter /mnt/data/applications/G09/g09/l120.exe)
 SvSCFP is copying densities from files   528 and   530 to   603.
 ONIOM: saving gridpoint  2
 ONIOM: restoring gridpoint 17
 ONIOM: generating point  1 -- low level on model system.
 Leave Link  120 at Tue Feb  7 16:28:18 2017, MaxMem=  1048576000 cpu:         0.2
 (Enter /mnt/data/applications/G09/g09/l301.exe)
 Standard basis: STO-3G (5D, 7F)
 Ernie: Thresh=  0.10000D-02 Tol=  0.10000D-05 Strict=F.
    26 basis functions,    78 primitive gaussians,    26 cartesian basis functions
    16 alpha electrons       16 beta electrons
       nuclear repulsion energy       117.6008444183 Hartrees.
 IExCor=    0 DFT=F Ex=HF Corr=None ExCW=0 ScaHFX=  1.000000
 ScaDFX=  1.000000  1.000000  1.000000  1.000000 ScalE2=  1.000000  1.000000
 IRadAn=      0 IRanWt=     -1 IRanGd=            0 ICorTp=0 IEmpDi=  4
 NAtoms=   19 NActive=   10 NUniq=   10 SFac= 1.00D+00 NAtFMM=   60 NAOKFM=F Big=F
 Integral buffers will be    131072 words long.
 Raffenetti 1 integral format.
 Two-electron integral symmetry is turned off.
 Leave Link  301 at Tue Feb  7 16:28:18 2017, MaxMem=  1048576000 cpu:         0.4
 (Enter /mnt/data/applications/G09/g09/l402.exe)
 External calculation of energy and first derivatives.
 Running external command "./sictwo_files/sictwo_g09d01 M"
         input file       "/scratch/Gau-21969.EIn"
         output file      "/scratch/Gau-21969.EOu"
         message file     "/scratch/Gau-21969.EMs"
         fchk file        "/scratch/Gau-21969.EFC"
         mat. el file     "/scratch/Gau-21969.EUF"

---------------------------- SICTWO Version 1.0 STARTED -----------------------------

MM calculations started
MM calculations finished ....
Information recovery

---------------------------- SICTWO Version 1.0 FINISHED -----------------------------

 Recovered energy= 0.829851784740E-02 dipole=     -0.764435156449     -1.314450775963     -0.197895462529
 Energy=    8.298517847E-03 NIter=   0.
 Dipole moment=      -0.764435      -1.314451      -0.197895
 Leave Link  402 at Tue Feb  7 16:28:20 2017, MaxMem=  1048576000 cpu:        14.8
 (Enter /mnt/data/applications/G09/g09/l601.exe)
 Leave Link  601 at Tue Feb  7 16:28:20 2017, MaxMem=  1048576000 cpu:         0.2
 (Enter /mnt/data/applications/G09/g09/l716.exe)
 Dipole        =-7.64435156D-01-1.31445078D+00-1.97895463D-01
 Cartesian Forces:  Max     0.029545163 RMS     0.009030496
 Leave Link  716 at Tue Feb  7 16:28:20 2017, MaxMem=  1048576000 cpu:         0.2
 (Enter /mnt/data/applications/G09/g09/l120.exe)
 SvSCFP did not find density file   528.
 ONIOM: saving gridpoint  1
 ONIOM: restoring gridpoint  3
 ONIOM: calculating energy.
 ONIOM: gridpoint  1 method:  low   system:  model energy:     0.008298517847
 ONIOM: gridpoint  2 method:  high  system:  model energy:  -193.148481247907
 ONIOM: gridpoint  3 method:  low   system:  real  energy:     0.025405027782
 ONIOM: extrapolated energy =    -193.131374737973
 ONIOM: calculating first derivatives.
 ONIOM: calculating electric field derivatives.
 ONIOM: Integrating ONIOM file  4 number   619
 ONIOM: Dipole        =-6.05489458D-01-9.60062300D-01-1.49492233D-01
 ONIOM: Dipole moment (Debye):
    X=    -1.5390    Y=    -2.4402    Z=    -0.3800  Tot=     2.9099
 ONIOM: Integrating ONIOM file  5 number   695
 Nuclear Quadrupole Tensors: 
                 1             2             3             4             5 
      1   0.262738D+00  0.131931D+01 -0.725295D-01  0.109481D+00  0.106786D+00
      2  -0.218730D-01 -0.116152D+01  0.133140D-02  0.792397D-01 -0.155805D+00
      3   0.222406D+00 -0.355562D-01  0.440114D-01  0.589046D-01 -0.277064D+00
      4  -0.454330D-02 -0.199258D+00  0.259702D-02 -0.135798D+00  0.126035D-03
      5   0.109808D+00  0.205886D+00  0.863485D-02  0.194571D+00 -0.610967D-03
      6  -0.485143D+00 -0.128376D+01  0.285181D-01 -0.168386D+00  0.170278D+00
                 6             7             8             9            10 
      1   0.109418D+00 -0.123946D-02  0.147919D+00  0.123763D+00  0.000000D+00
      2   0.792646D-01  0.609427D-01 -0.581329D-01 -0.599433D-01  0.000000D+00
      3   0.579035D-01 -0.116113D-01 -0.246418D-01  0.741126D-01  0.000000D+00
      4   0.135623D+00  0.937142D-02  0.778357D-01 -0.127186D+00  0.000000D+00
      5  -0.193685D+00 -0.532756D-02  0.237263D+00 -0.186133D+00  0.000000D+00
      6  -0.167321D+00  0.128508D-01 -0.123277D+00 -0.197876D+00  0.000000D+00
                11            12            13            14            15 
      1   0.000000D+00  0.000000D+00  0.000000D+00  0.000000D+00  0.000000D+00
      2   0.000000D+00  0.000000D+00  0.000000D+00  0.000000D+00  0.000000D+00
      3   0.000000D+00  0.000000D+00  0.000000D+00  0.000000D+00  0.000000D+00
      4   0.000000D+00  0.000000D+00  0.000000D+00  0.000000D+00  0.000000D+00
      5   0.000000D+00  0.000000D+00  0.000000D+00  0.000000D+00  0.000000D+00
      6   0.000000D+00  0.000000D+00  0.000000D+00  0.000000D+00  0.000000D+00
                16            17            18            19 
      1   0.000000D+00  0.000000D+00  0.000000D+00  0.000000D+00
      2   0.000000D+00  0.000000D+00  0.000000D+00  0.000000D+00
      3   0.000000D+00  0.000000D+00  0.000000D+00  0.000000D+00
      4   0.000000D+00  0.000000D+00  0.000000D+00  0.000000D+00
      5   0.000000D+00  0.000000D+00  0.000000D+00  0.000000D+00
      6   0.000000D+00  0.000000D+00  0.000000D+00  0.000000D+00
 Saving ESP charges from gridpoint 2
 Leave Link  120 at Tue Feb  7 16:28:20 2017, MaxMem=  1048576000 cpu:         0.0
 (Enter /mnt/data/applications/G09/g09/l716.exe)
 Dipole        =-6.05489458D-01-9.60062300D-01-1.49492233D-01
 -------------------------------------------------------------------
 Center     Atomic                   Forces (Hartrees/Bohr)
 Number     Number              X              Y              Z
 -------------------------------------------------------------------
      1        6           0.026220000    0.050560138    0.011227544
      2        8          -0.040578580   -0.043894710   -0.002292953
      3        6           0.030726033   -0.011462611    0.001463671
      4        1          -0.005732883    0.009172219   -0.013657149
      5        1          -0.009916700   -0.015179488   -0.000766789
      6        1          -0.005073043    0.009811437    0.012372982
      7        6           0.011566288    0.032973704    0.003884430
      8        1          -0.007679333   -0.014016260    0.012783340
      9        1          -0.010586670   -0.012058604   -0.014139859
     10        6          -0.007687050   -0.012233925   -0.020020688
     11        1           0.007287351    0.005824652    0.014126911
     12        6          -0.012853955    0.020471035    0.006111458
     13        1          -0.002150660   -0.009058359   -0.012782865
     14        1           0.015328104   -0.000178189   -0.000191260
     15        1          -0.001078240   -0.011219139    0.010173029
     16        6           0.002215341   -0.018608192    0.014635082
     17        1          -0.007155881    0.003097430   -0.014959498
     18        1           0.004275431    0.014539790    0.001526283
     19        1           0.012874278    0.001459072   -0.009493500
 -------------------------------------------------------------------
 Cartesian Forces:  Max     0.050560138 RMS     0.016015277
 Leave Link  716 at Tue Feb  7 16:28:20 2017, MaxMem=  1048576000 cpu:         0.2
 (Enter /mnt/data/applications/G09/g09/l103.exe)

 GradGradGradGradGradGradGradGradGradGradGradGradGradGradGradGradGradGrad
 Berny optimization.
 FormGI is forming the generalized inverse of G from B-inverse, IUseBI=4.
 GSVD:  received Info=                   1 from GESDD.
 Internal  Forces:  Max     0.058149451 RMS     0.011031223
 Search for a local minimum.
 Step number   1 out of a maximum of  100
 All quantities printed in internal units (Hartrees-Bohrs-Radians)
 RMS Force = .11031D-01 SwitMx=.10000D-02 MixMth= 1
 Mixed Optimization -- RFO/linear search
 Second derivative matrix not updated -- first step.
 ITU=  0
     Eigenvalues ---    0.00237   0.00237   0.00237   0.00237   0.00237
     Eigenvalues ---    0.00237   0.03921   0.04356   0.04607   0.04607
     Eigenvalues ---    0.05410   0.05720   0.05720   0.05720   0.05720
     Eigenvalues ---    0.07243   0.07243   0.08669   0.12376   0.16000
     Eigenvalues ---    0.16000   0.16000   0.16000   0.16000   0.16000
     Eigenvalues ---    0.16000   0.16000   0.16000   0.16074   0.16074
     Eigenvalues ---    0.21983   0.25000   0.25000   0.28519   0.28519
     Eigenvalues ---    0.28519   0.28519   0.28519   0.37230   0.37230
     Eigenvalues ---    0.37230   0.37230   0.37230   0.37230   0.37230
     Eigenvalues ---    0.37230   0.37230   0.37230   0.37230   0.37230
     Eigenvalues ---    0.80209
 RFO step:  Lambda=-3.42864509D-02 EMin= 2.36824077D-03
 Linear search not attempted -- first point.
 Maximum step size (   0.300) exceeded in Quadratic search.
    -- Step size scaled by   0.971
 Iteration  1 RMS(Cart)=  0.18647569 RMS(Int)=  0.00866529
 Iteration  2 RMS(Cart)=  0.01448875 RMS(Int)=  0.00093862
 Iteration  3 RMS(Cart)=  0.00008750 RMS(Int)=  0.00093686
 Iteration  4 RMS(Cart)=  0.00000006 RMS(Int)=  0.00093686
 ITry= 1 IFail=0 DXMaxC= 6.14D-01 DCOld= 1.00D+10 DXMaxT= 3.00D-01 DXLimC= 3.00D+00 Rises=F
 Variable       Old X    -DE/DX   Delta X   Delta X   Delta X     New X
                                 (Linear)    (Quad)   (Total)
    R1        2.37803  -0.05815   0.00000  -0.06753  -0.06753   2.31051
    R2        2.91018  -0.01000   0.00000  -0.03041  -0.03041   2.87977
    R3        2.91018   0.00239   0.00000   0.00728   0.00728   2.91746
    R4        2.02201   0.01739   0.00000   0.04153   0.04153   2.06354
    R5        2.02201   0.01762   0.00000   0.04208   0.04208   2.06409
    R6        2.02201   0.01642   0.00000   0.03922   0.03922   2.06123
    R7        2.02201   0.01988   0.00000   0.04749   0.04749   2.06950
    R8        2.02201   0.02034   0.00000   0.04858   0.04858   2.07059
    R9        2.91018   0.01015   0.00000   0.03085   0.03085   2.94103
   R10        2.02201   0.01673   0.00000   0.03996   0.03996   2.06197
   R11        2.91018  -0.00089   0.00000  -0.00270  -0.00270   2.90747
   R12        2.91018   0.00885   0.00000   0.02691   0.02691   2.93709
   R13        2.02201   0.01538   0.00000   0.03673   0.03673   2.05874
   R14        2.02201   0.01503   0.00000   0.03589   0.03589   2.05790
   R15        2.02201   0.01494   0.00000   0.03569   0.03569   2.05769
   R16        2.02201   0.01506   0.00000   0.03598   0.03598   2.05799
   R17        2.02201   0.01451   0.00000   0.03466   0.03466   2.05667
   R18        2.02201   0.01479   0.00000   0.03534   0.03534   2.05734
    A1        2.09241  -0.00684   0.00000  -0.02338  -0.02353   2.06888
    A2        2.09836   0.02498   0.00000   0.08535   0.08512   2.18348
    A3        2.09241  -0.01814   0.00000  -0.06197  -0.06216   2.03025
    A4        1.91063  -0.00165   0.00000  -0.01140  -0.01153   1.89910
    A5        1.91063   0.00731   0.00000   0.04118   0.04111   1.95174
    A6        1.91063  -0.00182   0.00000  -0.01058  -0.01077   1.89987
    A7        1.91063  -0.00192   0.00000  -0.00661  -0.00663   1.90400
    A8        1.91063  -0.00111   0.00000  -0.01485  -0.01511   1.89553
    A9        1.91063  -0.00081   0.00000   0.00226   0.00214   1.91277
   A10        1.91063  -0.01546   0.00000  -0.07771  -0.07813   1.83251
   A11        1.91063  -0.00821   0.00000  -0.00951  -0.01437   1.89626
   A12        1.91063   0.03594   0.00000   0.15173   0.15001   2.06064
   A13        1.91063   0.00144   0.00000  -0.04236  -0.04428   1.86635
   A14        1.91063  -0.00643   0.00000  -0.01863  -0.01613   1.89450
   A15        1.91063  -0.00729   0.00000  -0.00352  -0.00679   1.90385
   A16        1.91063  -0.00265   0.00000  -0.01090  -0.01255   1.89809
   A17        1.91063  -0.00623   0.00000  -0.02863  -0.02853   1.88210
   A18        1.91063   0.01474   0.00000   0.08919   0.08900   1.99963
   A19        1.91063   0.00175   0.00000  -0.02475  -0.02543   1.88520
   A20        1.91063  -0.00184   0.00000  -0.00053  -0.00167   1.90896
   A21        1.91063  -0.00578   0.00000  -0.02438  -0.02397   1.88666
   A22        1.91063   0.00430   0.00000   0.02276   0.02258   1.93321
   A23        1.91063   0.00284   0.00000   0.01385   0.01372   1.92436
   A24        1.91063   0.00230   0.00000   0.01057   0.01047   1.92111
   A25        1.91063  -0.00317   0.00000  -0.01403  -0.01424   1.89640
   A26        1.91063  -0.00315   0.00000  -0.01508  -0.01523   1.89541
   A27        1.91063  -0.00312   0.00000  -0.01807  -0.01811   1.89252
   A28        1.91063   0.00885   0.00000   0.04827   0.04752   1.95815
   A29        1.91063   0.00325   0.00000   0.01532   0.01494   1.92558
   A30        1.91063   0.00548   0.00000   0.02436   0.02398   1.93461
   A31        1.91063  -0.00469   0.00000  -0.01733  -0.01803   1.89261
   A32        1.91063  -0.00674   0.00000  -0.03181  -0.03251   1.87812
   A33        1.91063  -0.00616   0.00000  -0.03880  -0.03879   1.87185
    D1        1.19651  -0.00072   0.00000   0.00749   0.00696   1.20347
    D2       -2.99228   0.00039   0.00000   0.01763   0.01696  -2.97531
    D3       -0.89788   0.00276   0.00000   0.03914   0.03845  -0.85943
    D4       -1.94508  -0.00207   0.00000  -0.02814  -0.02741  -1.97249
    D5        0.14931  -0.00095   0.00000  -0.01800  -0.01741   0.13190
    D6        2.24371   0.00141   0.00000   0.00351   0.00408   2.24779
    D7        2.02617   0.00369   0.00000  -0.01341  -0.01619   2.00998
    D8       -2.16262  -0.00904   0.00000  -0.11870  -0.11883  -2.28145
    D9       -0.06822  -0.00098   0.00000  -0.03592  -0.03476  -0.10298
   D10       -1.11542   0.00504   0.00000   0.02234   0.02072  -1.09470
   D11        0.97898  -0.00769   0.00000  -0.08295  -0.08192   0.89706
   D12        3.07337   0.00036   0.00000  -0.00017   0.00216   3.07553
   D13        1.07114  -0.00268   0.00000  -0.06878  -0.06923   1.00190
   D14       -3.11765  -0.00597   0.00000  -0.12330  -0.12347   3.04206
   D15       -1.02326  -0.00783   0.00000  -0.11607  -0.11662  -1.13988
   D16       -1.02326  -0.00182   0.00000  -0.05512  -0.05562  -1.07888
   D17        1.07114  -0.00511   0.00000  -0.10964  -0.10986   0.96128
   D18       -3.11765  -0.00697   0.00000  -0.10241  -0.10300   3.06253
   D19       -3.11765   0.00481   0.00000   0.01033   0.01110  -3.10656
   D20       -1.02326   0.00153   0.00000  -0.04419  -0.04314  -1.06640
   D21        1.07114  -0.00034   0.00000  -0.03696  -0.03629   1.03485
   D22        1.05531   0.00553   0.00000   0.04166   0.04148   1.09679
   D23       -3.13348   0.00602   0.00000   0.04690   0.04679  -3.08669
   D24       -1.03908   0.00535   0.00000   0.03972   0.03953  -0.99955
   D25       -3.13348  -0.00046   0.00000  -0.00438  -0.00440  -3.13788
   D26       -1.03908   0.00004   0.00000   0.00087   0.00091  -1.03818
   D27        1.05531  -0.00064   0.00000  -0.00632  -0.00635   1.04896
   D28       -1.03908  -0.00518   0.00000  -0.03512  -0.03498  -1.07406
   D29        1.05531  -0.00468   0.00000  -0.02988  -0.02967   1.02564
   D30       -3.13348  -0.00536   0.00000  -0.03706  -0.03693   3.11277
   D31       -0.32343   0.00130   0.00000  -0.00732  -0.00703  -0.33046
   D32        1.77097   0.00297   0.00000   0.01039   0.01086   1.78183
   D33       -2.41782   0.00078   0.00000  -0.01284  -0.01274  -2.43056
   D34       -2.41782  -0.00335   0.00000  -0.04826  -0.04852  -2.46635
   D35       -0.32343  -0.00168   0.00000  -0.03055  -0.03063  -0.35406
   D36        1.77097  -0.00387   0.00000  -0.05378  -0.05424   1.71673
   D37        1.77097  -0.00084   0.00000  -0.00269  -0.00270   1.76827
   D38       -2.41782   0.00083   0.00000   0.01502   0.01519  -2.40264
   D39       -0.32343  -0.00136   0.00000  -0.00821  -0.00841  -0.33184
         Item               Value     Threshold  Converged?
 Maximum Force            0.058149     0.000450     NO 
 RMS     Force            0.011031     0.000300     NO 
 Maximum Displacement     0.614106     0.001800     NO 
 RMS     Displacement     0.184878     0.001200     NO 
 Predicted change in Energy=-2.046164D-02
 Lowest energy point so far.  Saving SCF results.
 GradGradGradGradGradGradGradGradGradGradGradGradGradGradGradGradGradGrad

 Leave Link  103 at Tue Feb  7 16:28:21 2017, MaxMem=  1048576000 cpu:         0.1
 (Enter /mnt/data/applications/G09/g09/l202.exe)
                          Input orientation:                          
 ---------------------------------------------------------------------
 Center     Atomic      Atomic             Coordinates (Angstroms)
 Number     Number       Type             X           Y           Z
 ---------------------------------------------------------------------
      1          6    10061002       -2.463873    0.476603    0.073815
      2          8    10081002       -2.032288    1.588738    0.341777
      3          6    10061003       -3.972696    0.262756    0.069561
      4          1    10011000       -4.403008    0.806567   -0.773953
      5          1    10011000       -4.232762   -0.794569   -0.016940
      6          1    10011000       -4.388662    0.667380    0.993139
      7          6    10061003       -1.595533   -0.765365   -0.221106
      8          1    10011000       -1.811047   -1.462236    0.595739
      9          1    10011000       -1.955980   -1.233806   -1.143720
     10          6    10061003       -0.053777   -0.575163   -0.315749
     11          1    10011000        0.304224   -0.141533    0.619347
     12          6    10061003        0.584153   -1.966740   -0.469874
     13          1    10011000        0.258428   -2.440614   -1.395196
     14          1    10011000        1.669927   -1.884293   -0.484177
     15          1    10011000        0.298184   -2.603558    0.365802
     16          6    10061003        0.416781    0.306215   -1.506302
     17          1    10011000       -0.344315    0.392247   -2.280475
     18          1    10011000        0.669632    1.306363   -1.159512
     19          1    10011000        1.310255   -0.110958   -1.967753
 ---------------------------------------------------------------------
                    Distance matrix (angstroms):
                    1          2          3          4          5
     1  C    0.000000
     2  O    1.222667   0.000000
     3  C    1.523908   2.365907   0.000000
     4  H    2.141922   2.734403   1.091977   0.000000
     5  H    2.180156   3.263574   1.092269   1.779238   0.000000
     6  H    2.141580   2.612599   1.090754   1.772623   1.783776
     7  C    1.543852   2.459551   2.606228   3.264740   2.645281
     8  H    2.111323   3.069509   2.815171   3.706991   2.585702
     9  H    2.160057   3.190498   2.789067   3.207460   2.578042
    10  C    2.658296   3.004881   4.025978   4.586386   4.195395
    11  H    2.888262   2.920645   4.331023   4.999821   4.627694
    12  C    3.944108   4.488425   5.101619   5.714497   4.978132
    13  H    4.251948   4.949760   5.230308   5.714815   4.977935
    14  H    4.793067   5.143008   6.062643   6.648702   6.020593
    15  H    4.147483   4.796564   5.152081   5.918548   4.893711
    16  C    3.289980   3.325386   4.663983   4.900720   5.004815
    17  H    3.168963   3.340217   4.324880   4.349053   4.653187
    18  H    3.468206   3.103864   4.914361   5.111764   5.454617
    19  H    4.330966   4.404030   5.674494   5.908332   5.915913
                    6          7          8          9         10
     6  H    0.000000
     7  C    3.365817   0.000000
     8  H    3.367089   1.095131   0.000000
     9  H    3.754813   1.095708   1.760371   0.000000
    10  C    4.695565   1.556324   2.169265   2.176631   0.000000
    11  H    4.776739   2.169010   2.493830   3.067570   1.091148
    12  C    5.814455   2.501243   2.669652   2.728285   1.538569
    13  H    6.079408   2.760817   3.033772   2.534408   2.177747
    14  H    6.737952   3.461854   3.668997   3.742370   2.171024
    15  H    5.749706   2.703623   2.409221   3.039101   2.168589
    16  C    5.428621   2.617139   3.536837   2.851864   1.554242
    17  H    5.210470   2.673315   3.723308   2.556116   2.209172
    18  H    5.534306   3.209927   4.110939   3.653293   2.185268
    19  H    6.469184   3.452915   4.259105   3.550790   2.192074
                   11         12         13         14         15
    11  H    0.000000
    12  C    2.143861   0.000000
    13  H    3.057164   1.089438   0.000000
    14  H    2.473888   1.088994   1.769684   0.000000
    15  H    2.475053   1.088885   1.768967   1.766773   0.000000
    16  C    2.175208   2.503702   2.753632   2.722763   3.462026
    17  H    3.019022   3.115309   3.028550   3.530792   4.048511
    18  H    2.322556   3.346059   3.776833   3.411297   4.213317
    19  H    2.775990   2.492949   2.619439   2.339889   3.561296
                   16         17         18         19
    16  C    0.000000
    17  H    1.089042   0.000000
    18  H    1.088343   1.766424   0.000000
    19  H    1.088699   1.757444   1.752840   0.000000
 Symmetry turned off by external request.
 Stoichiometry    C6H12O
 Framework group  C1[X(C6H12O)]
 Deg. of freedom    51
 Full point group                 C1      NOp   1
 Rotational constants (GHZ):      4.7044290      1.4529908      1.2376174
 Leave Link  202 at Tue Feb  7 16:28:21 2017, MaxMem=  1048576000 cpu:         0.0
 (Enter /mnt/data/applications/G09/g09/l120.exe)
 SvSCFP did not find density file   528.
 ONIOM: saving gridpoint 17
 ONIOM: restoring gridpoint  3
 ONIOM: restoring gridpoint  3 on chk file.
 ONIOM: generating point  3 -- low level on real system.
 Leave Link  120 at Tue Feb  7 16:28:21 2017, MaxMem=  1048576000 cpu:         0.0
 (Enter /mnt/data/applications/G09/g09/l301.exe)
 Standard basis: STO-3G (5D, 7F)
 Ernie: Thresh=  0.10000D-02 Tol=  0.10000D-05 Strict=F.
    47 basis functions,   141 primitive gaussians,    47 cartesian basis functions
    28 alpha electrons       28 beta electrons
       nuclear repulsion energy       308.2923157832 Hartrees.
 IExCor=    0 DFT=F Ex=HF Corr=None ExCW=0 ScaHFX=  1.000000
 ScaDFX=  1.000000  1.000000  1.000000  1.000000 ScalE2=  1.000000  1.000000
 IRadAn=      0 IRanWt=     -1 IRanGd=            0 ICorTp=0 IEmpDi=  4
 NAtoms=   19 NActive=   19 NUniq=   19 SFac= 1.00D+00 NAtFMM=   60 NAOKFM=F Big=F
 Integral buffers will be    131072 words long.
 Raffenetti 1 integral format.
 Two-electron integral symmetry is turned off.
 Leave Link  301 at Tue Feb  7 16:28:21 2017, MaxMem=  1048576000 cpu:         0.6
 (Enter /mnt/data/applications/G09/g09/l402.exe)
 External calculation of energy and first derivatives.
 Running external command "./sictwo_files/sictwo_g09d01 R"
         input file       "/scratch/Gau-21969.EIn"
         output file      "/scratch/Gau-21969.EOu"
         message file     "/scratch/Gau-21969.EMs"
         fchk file        "/scratch/Gau-21969.EFC"
         mat. el file     "/scratch/Gau-21969.EUF"

---------------------------- SICTWO Version 1.0 STARTED -----------------------------

MM calculations started
MM calculations finished ....
Information recovery

---------------------------- SICTWO Version 1.0 FINISHED -----------------------------

 Recovered energy= 0.173061881398E-01 dipole=     -0.538606139567     -1.365596720553     -0.323006311603
 Energy=    1.730618814E-02 NIter=   0.
 Dipole moment=      -0.538606      -1.365597      -0.323006
 Leave Link  402 at Tue Feb  7 16:28:24 2017, MaxMem=  1048576000 cpu:        20.1
 (Enter /mnt/data/applications/G09/g09/l716.exe)
 Dipole        =-5.38606140D-01-1.36559672D+00-3.23006312D-01
 Cartesian Forces:  Max     0.014087782 RMS     0.004466680
 Leave Link  716 at Tue Feb  7 16:28:24 2017, MaxMem=  1048576000 cpu:         0.2
 (Enter /mnt/data/applications/G09/g09/l120.exe)
 SvSCFP did not find density file   528.
 ONIOM: saving gridpoint  3
 ONIOM: restoring gridpoint  2
 ONIOM: restoring gridpoint  2 on chk file.
 ONIOM: generating point  2 -- high level on model system.
 Leave Link  120 at Tue Feb  7 16:28:24 2017, MaxMem=  1048576000 cpu:         0.0
 (Enter /mnt/data/applications/G09/g09/l301.exe)
 Standard basis: 6-31G(d) (6D, 7F)
 Ernie: Thresh=  0.10000D-02 Tol=  0.10000D-05 Strict=F.
    72 basis functions,   136 primitive gaussians,    72 cartesian basis functions
    16 alpha electrons       16 beta electrons
       nuclear repulsion energy       118.2419462503 Hartrees.
 IExCor=  402 DFT=T Ex+Corr=B3LYP ExCW=0 ScaHFX=  0.200000
 ScaDFX=  0.800000  0.720000  1.000000  0.810000 ScalE2=  1.000000  1.000000
 IRadAn=      0 IRanWt=     -1 IRanGd=            0 ICorTp=0 IEmpDi=  4
 NAtoms=   19 NActive=   10 NUniq=   10 SFac= 1.00D+00 NAtFMM=   60 NAOKFM=F Big=F
 Integral buffers will be    131072 words long.
 Raffenetti 2 integral format.
 Two-electron integral symmetry is turned off.
 Leave Link  301 at Tue Feb  7 16:28:24 2017, MaxMem=  1048576000 cpu:         0.5
 (Enter /mnt/data/applications/G09/g09/l302.exe)
 NPDir=0 NMtPBC=     1 NCelOv=     1 NCel=       1 NClECP=     1 NCelD=      1
         NCelK=      1 NCelE2=     1 NClLst=     1 CellRange=     0.0.
 One-electron integrals computed using PRISM.
 NBasis=    72 RedAO= T EigKep=  4.72D-03  NBF=    72
 NBsUse=    72 1.00D-06 EigRej= -1.00D+00 NBFU=    72
 Precomputing XC quadrature grid using
 IXCGrd= 4 IRadAn=           0 IRanWt=          -1 IRanGd=           0 AccXCQ= 0.00D+00.
 Generated NRdTot=       0 NPtTot=           0 NUsed=           0 NTot=          32
 NSgBfM=    72    72    72    72    72 MxSgAt=    10 MxSgA2=    10.
 Leave Link  302 at Tue Feb  7 16:28:24 2017, MaxMem=  1048576000 cpu:         1.3
 (Enter /mnt/data/applications/G09/g09/l303.exe)
 DipDrv:  MaxL=1.
 Leave Link  303 at Tue Feb  7 16:28:24 2017, MaxMem=  1048576000 cpu:         0.3
 (Enter /mnt/data/applications/G09/g09/l401.exe)
 Initial guess from the checkpoint file:  "C_4.chk"
 B after Tr=    -0.181788    0.608296    0.119277
         Rot=    0.997815   -0.037277    0.000307   -0.054552 Ang=  -7.58 deg.
 Guess basis will be translated and rotated to current coordinates.
 JPrj=2 DoOrth=T DoCkMO=T.
 Generating alternative initial guess.
 ExpMin= 1.61D-01 ExpMax= 5.48D+03 ExpMxC= 8.25D+02 IAcc=1 IRadAn=         1 AccDes= 0.00D+00
 Harris functional with IExCor=  402 and IRadAn=       1 diagonalized for initial guess.
 HarFok:  IExCor=  402 AccDes= 0.00D+00 IRadAn=         1 IDoV= 1 UseB2=F ITyADJ=14
 ICtDFT=  3500011 ScaDFX=  1.000000  1.000000  1.000000  1.000000
 FoFCou: FMM=F IPFlag=           0 FMFlag=      100000 FMFlg1=           0
         NFxFlg=           0 DoJE=T BraDBF=F KetDBF=T FulRan=T
         wScrn=  0.000000 ICntrl=     500 IOpCl=  0 I1Cent=   200000004 NGrid=           0
         NMat0=    1 NMatS0=      1 NMatT0=    0 NMatD0=    1 NMtDS0=    0 NMtDT0=    0
 Symmetry not used in FoFCou.
 Harris En= -193.196952600251    
 Leave Link  401 at Tue Feb  7 16:28:25 2017, MaxMem=  1048576000 cpu:         2.6
 (Enter /mnt/data/applications/G09/g09/l502.exe)
 Closed shell SCF:
 Using DIIS extrapolation, IDIIS=  1040.
 Two-electron integral symmetry not used.
 Keep R1 ints in memory in canonical form, NReq=4377734.
 IVT=       28624 IEndB=       28624 NGot=  1048576000 MDV=  1045092871
 LenX=  1045092871 LenY=  1045087246
 Requested convergence on RMS density matrix=1.00D-08 within 100 cycles.
 Requested convergence on MAX density matrix=1.00D-06.
 Requested convergence on             energy=1.00D-06.
 No special actions if energy rises.
 FoFCou: FMM=F IPFlag=           0 FMFlag=           0 FMFlg1=           0
         NFxFlg=           0 DoJE=F BraDBF=F KetDBF=F FulRan=T
         wScrn=  0.000000 ICntrl=     600 IOpCl=  0 I1Cent=           0 NGrid=           0
         NMat0=    1 NMatS0=   2628 NMatT0=    0 NMatD0=    1 NMtDS0=    0 NMtDT0=    0
 Symmetry not used in FoFCou.
 Integral accuracy reduced to 1.0D-05 until final iterations.

 Cycle   1  Pass 0  IDiag  1:
 E= -193.143815550118    
 DIIS: error= 5.69D-03 at cycle   1 NSaved=   1.
 NSaved= 1 IEnMin= 1 EnMin= -193.143815550118     IErMin= 1 ErrMin= 5.69D-03
 ErrMax= 5.69D-03  0.00D+00 EMaxC= 1.00D-01 BMatC= 4.14D-03 BMatP= 4.14D-03
 IDIUse=3 WtCom= 9.43D-01 WtEn= 5.69D-02
 Coeff-Com:  0.100D+01
 Coeff-En:   0.100D+01
 Coeff:      0.100D+01
 Gap=     1.905 Goal=   None    Shift=    0.000
 GapD=    1.905 DampG=2.000 DampE=1.000 DampFc=2.0000 IDamp=-1.
 RMSDP=1.48D-03 MaxDP=1.77D-02              OVMax= 2.62D-02

 Cycle   2  Pass 0  IDiag  1:
 E= -193.150391261600     Delta-E=       -0.006575711482 Rises=F Damp=F
 DIIS: error= 2.93D-03 at cycle   2 NSaved=   2.
 NSaved= 2 IEnMin= 2 EnMin= -193.150391261600     IErMin= 2 ErrMin= 2.93D-03
 ErrMax= 2.93D-03  0.00D+00 EMaxC= 1.00D-01 BMatC= 7.73D-04 BMatP= 4.14D-03
 IDIUse=3 WtCom= 9.71D-01 WtEn= 2.93D-02
 Coeff-Com:  0.189D+00 0.811D+00
 Coeff-En:   0.000D+00 0.100D+01
 Coeff:      0.184D+00 0.816D+00
 Gap=     0.228 Goal=   None    Shift=    0.000
 RMSDP=6.72D-04 MaxDP=1.12D-02 DE=-6.58D-03 OVMax= 1.83D-02

 Cycle   3  Pass 0  IDiag  1:
 E= -193.150120339530     Delta-E=        0.000270922070 Rises=F Damp=F
 DIIS: error= 4.16D-03 at cycle   3 NSaved=   3.
 NSaved= 3 IEnMin= 2 EnMin= -193.150391261600     IErMin= 2 ErrMin= 2.93D-03
 ErrMax= 4.16D-03  0.00D+00 EMaxC= 1.00D-01 BMatC= 1.18D-03 BMatP= 7.73D-04
 IDIUse=3 WtCom= 1.34D-01 WtEn= 8.66D-01
 Coeff-Com: -0.144D-01 0.560D+00 0.455D+00
 Coeff-En:   0.000D+00 0.571D+00 0.429D+00
 Coeff:     -0.194D-02 0.569D+00 0.433D+00
 Gap=     0.232 Goal=   None    Shift=    0.000
 RMSDP=4.38D-04 MaxDP=8.84D-03 DE= 2.71D-04 OVMax= 1.47D-02

 Cycle   4  Pass 0  IDiag  1:
 E= -193.151025875037     Delta-E=       -0.000905535506 Rises=F Damp=F
 DIIS: error= 1.14D-03 at cycle   4 NSaved=   4.
 NSaved= 4 IEnMin= 4 EnMin= -193.151025875037     IErMin= 4 ErrMin= 1.14D-03
 ErrMax= 1.14D-03  0.00D+00 EMaxC= 1.00D-01 BMatC= 7.43D-05 BMatP= 7.73D-04
 IDIUse=3 WtCom= 9.89D-01 WtEn= 1.14D-02
 Coeff-Com: -0.247D-01 0.285D+00 0.276D+00 0.464D+00
 Coeff-En:   0.000D+00 0.000D+00 0.000D+00 0.100D+01
 Coeff:     -0.245D-01 0.282D+00 0.273D+00 0.470D+00
 Gap=     0.230 Goal=   None    Shift=    0.000
 RMSDP=8.89D-05 MaxDP=1.55D-03 DE=-9.06D-04 OVMax= 2.63D-03

 Cycle   5  Pass 0  IDiag  1:
 E= -193.151086395708     Delta-E=       -0.000060520671 Rises=F Damp=F
 DIIS: error= 1.01D-04 at cycle   5 NSaved=   5.
 NSaved= 5 IEnMin= 5 EnMin= -193.151086395708     IErMin= 5 ErrMin= 1.01D-04
 ErrMax= 1.01D-04  0.00D+00 EMaxC= 1.00D-01 BMatC= 8.29D-07 BMatP= 7.43D-05
 IDIUse=3 WtCom= 9.99D-01 WtEn= 1.01D-03
 Coeff-Com: -0.680D-02 0.537D-01 0.630D-01 0.145D+00 0.745D+00
 Coeff-En:   0.000D+00 0.000D+00 0.000D+00 0.000D+00 0.100D+01
 Coeff:     -0.679D-02 0.537D-01 0.629D-01 0.145D+00 0.745D+00
 Gap=     0.230 Goal=   None    Shift=    0.000
 RMSDP=1.79D-05 MaxDP=1.98D-04 DE=-6.05D-05 OVMax= 2.80D-04

 Cycle   6  Pass 0  IDiag  1:
 E= -193.151087224854     Delta-E=       -0.000000829146 Rises=F Damp=F
 DIIS: error= 1.35D-05 at cycle   6 NSaved=   6.
 NSaved= 6 IEnMin= 6 EnMin= -193.151087224854     IErMin= 6 ErrMin= 1.35D-05
 ErrMax= 1.35D-05  0.00D+00 EMaxC= 1.00D-01 BMatC= 2.27D-08 BMatP= 8.29D-07
 IDIUse=1 WtCom= 1.00D+00 WtEn= 0.00D+00
 Coeff-Com: -0.514D-03 0.216D-03 0.215D-02 0.125D-01 0.168D+00 0.818D+00
 Coeff:     -0.514D-03 0.216D-03 0.215D-02 0.125D-01 0.168D+00 0.818D+00
 Gap=     0.230 Goal=   None    Shift=    0.000
 RMSDP=3.46D-06 MaxDP=3.56D-05 DE=-8.29D-07 OVMax= 8.49D-05

 Initial convergence to 1.0D-05 achieved.  Increase integral accuracy.
 Cycle   7  Pass 1  IDiag  1:
 E= -193.151069191770     Delta-E=        0.000018033083 Rises=F Damp=F
 DIIS: error= 8.74D-06 at cycle   1 NSaved=   1.
 NSaved= 1 IEnMin= 1 EnMin= -193.151069191770     IErMin= 1 ErrMin= 8.74D-06
 ErrMax= 8.74D-06  0.00D+00 EMaxC= 1.00D-01 BMatC= 1.23D-08 BMatP= 1.23D-08
 IDIUse=1 WtCom= 1.00D+00 WtEn= 0.00D+00
 Coeff-Com:  0.100D+01
 Coeff:      0.100D+01
 Gap=     0.230 Goal=   None    Shift=    0.000
 RMSDP=3.46D-06 MaxDP=3.56D-05 DE= 1.80D-05 OVMax= 5.63D-05

 Cycle   8  Pass 1  IDiag  1:
 E= -193.151069199549     Delta-E=       -0.000000007778 Rises=F Damp=F
 DIIS: error= 1.06D-05 at cycle   2 NSaved=   2.
 NSaved= 2 IEnMin= 2 EnMin= -193.151069199549     IErMin= 1 ErrMin= 8.74D-06
 ErrMax= 1.06D-05  0.00D+00 EMaxC= 1.00D-01 BMatC= 8.64D-09 BMatP= 1.23D-08
 IDIUse=1 WtCom= 1.00D+00 WtEn= 0.00D+00
 Coeff-Com:  0.445D+00 0.555D+00
 Coeff:      0.445D+00 0.555D+00
 Gap=     0.230 Goal=   None    Shift=    0.000
 RMSDP=1.49D-06 MaxDP=2.13D-05 DE=-7.78D-09 OVMax= 2.65D-05

 Cycle   9  Pass 1  IDiag  1:
 E= -193.151069206788     Delta-E=       -0.000000007239 Rises=F Damp=F
 DIIS: error= 4.16D-06 at cycle   3 NSaved=   3.
 NSaved= 3 IEnMin= 3 EnMin= -193.151069206788     IErMin= 3 ErrMin= 4.16D-06
 ErrMax= 4.16D-06  0.00D+00 EMaxC= 1.00D-01 BMatC= 1.29D-09 BMatP= 8.64D-09
 IDIUse=1 WtCom= 1.00D+00 WtEn= 0.00D+00
 Coeff-Com:  0.442D-01 0.274D+00 0.682D+00
 Coeff:      0.442D-01 0.274D+00 0.682D+00
 Gap=     0.230 Goal=   None    Shift=    0.000
 RMSDP=5.90D-07 MaxDP=1.28D-05 DE=-7.24D-09 OVMax= 2.05D-05

 Cycle  10  Pass 1  IDiag  1:
 E= -193.151069207384     Delta-E=       -0.000000000596 Rises=F Damp=F
 DIIS: error= 3.45D-06 at cycle   4 NSaved=   4.
 NSaved= 4 IEnMin= 4 EnMin= -193.151069207384     IErMin= 4 ErrMin= 3.45D-06
 ErrMax= 3.45D-06  0.00D+00 EMaxC= 1.00D-01 BMatC= 6.62D-10 BMatP= 1.29D-09
 IDIUse=1 WtCom= 1.00D+00 WtEn= 0.00D+00
 Coeff-Com: -0.180D-01 0.136D+00 0.493D+00 0.389D+00
 Coeff:     -0.180D-01 0.136D+00 0.493D+00 0.389D+00
 Gap=     0.230 Goal=   None    Shift=    0.000
 RMSDP=2.87D-07 MaxDP=5.73D-06 DE=-5.96D-10 OVMax= 9.43D-06

 Cycle  11  Pass 1  IDiag  1:
 E= -193.151069207899     Delta-E=       -0.000000000516 Rises=F Damp=F
 DIIS: error= 1.40D-07 at cycle   5 NSaved=   5.
 NSaved= 5 IEnMin= 5 EnMin= -193.151069207899     IErMin= 5 ErrMin= 1.40D-07
 ErrMax= 1.40D-07  0.00D+00 EMaxC= 1.00D-01 BMatC= 1.64D-12 BMatP= 6.62D-10
 IDIUse=1 WtCom= 1.00D+00 WtEn= 0.00D+00
 Coeff-Com: -0.528D-02 0.258D-01 0.102D+00 0.102D+00 0.776D+00
 Coeff:     -0.528D-02 0.258D-01 0.102D+00 0.102D+00 0.776D+00
 Gap=     0.230 Goal=   None    Shift=    0.000
 RMSDP=2.86D-08 MaxDP=2.59D-07 DE=-5.16D-10 OVMax= 9.34D-07

 Cycle  12  Pass 1  IDiag  1:
 E= -193.151069207900     Delta-E=       -0.000000000001 Rises=F Damp=F
 DIIS: error= 5.29D-08 at cycle   6 NSaved=   6.
 NSaved= 6 IEnMin= 6 EnMin= -193.151069207900     IErMin= 6 ErrMin= 5.29D-08
 ErrMax= 5.29D-08  0.00D+00 EMaxC= 1.00D-01 BMatC= 1.72D-13 BMatP= 1.64D-12
 IDIUse=1 WtCom= 1.00D+00 WtEn= 0.00D+00
 Coeff-Com: -0.429D-03-0.218D-02-0.448D-02 0.225D-02 0.232D+00 0.772D+00
 Coeff:     -0.429D-03-0.218D-02-0.448D-02 0.225D-02 0.232D+00 0.772D+00
 Gap=     0.230 Goal=   None    Shift=    0.000
 RMSDP=1.07D-08 MaxDP=1.24D-07 DE=-8.53D-13 OVMax= 4.38D-07

 Cycle  13  Pass 1  IDiag  1:
 E= -193.151069207901     Delta-E=       -0.000000000001 Rises=F Damp=F
 DIIS: error= 2.57D-08 at cycle   7 NSaved=   7.
 NSaved= 7 IEnMin= 7 EnMin= -193.151069207901     IErMin= 7 ErrMin= 2.57D-08
 ErrMax= 2.57D-08  0.00D+00 EMaxC= 1.00D-01 BMatC= 2.74D-14 BMatP= 1.72D-13
 IDIUse=1 WtCom= 1.00D+00 WtEn= 0.00D+00
 Coeff-Com:  0.464D-03-0.393D-02-0.139D-01-0.113D-01-0.471D-02 0.298D+00
 Coeff-Com:  0.735D+00
[...]
    A5        1.94345   0.00000   0.00002   0.00000   0.00002   1.94347
    A6        1.91538   0.00000  -0.00001  -0.00003  -0.00004   1.91535
    A7        1.86542   0.00000   0.00002   0.00000   0.00002   1.86544
    A8        1.90436   0.00000  -0.00002   0.00000  -0.00002   1.90434
    A9        1.91859   0.00000  -0.00002  -0.00001  -0.00002   1.91856
   A10        1.84721   0.00000   0.00000   0.00004   0.00004   1.84725
   A11        1.91487   0.00000   0.00001  -0.00002  -0.00002   1.91486
   A12        1.99750   0.00000   0.00000   0.00000   0.00000   1.99750
   A13        1.83764   0.00000  -0.00001  -0.00002  -0.00002   1.83761
   A14        1.91648   0.00000   0.00000   0.00001   0.00000   1.91648
   A15        1.94108   0.00000   0.00001  -0.00001  -0.00001   1.94107
   A16        1.91021   0.00000   0.00001  -0.00002  -0.00001   1.91020
   A17        1.92373   0.00000   0.00000  -0.00001  -0.00001   1.92372
   A18        1.94057   0.00000   0.00001   0.00000   0.00000   1.94057
   A19        1.88350   0.00000  -0.00001   0.00000  -0.00001   1.88349
   A20        1.88858   0.00000   0.00000   0.00001   0.00001   1.88859
   A21        1.91601   0.00000  -0.00001   0.00003   0.00002   1.91603
   A22        1.94279   0.00000   0.00000   0.00000   0.00000   1.94279
   A23        1.93410   0.00000   0.00000   0.00001   0.00001   1.93411
   A24        1.93406   0.00000   0.00000  -0.00002  -0.00002   1.93404
   A25        1.88553   0.00000   0.00000   0.00001   0.00001   1.88554
   A26        1.88570   0.00000   0.00000   0.00000   0.00000   1.88570
   A27        1.87941   0.00000   0.00000   0.00000   0.00001   1.87942
   A28        1.94191   0.00000   0.00000   0.00000   0.00001   1.94192
   A29        1.94356   0.00000   0.00000  -0.00001   0.00000   1.94355
   A30        1.93168   0.00000   0.00000   0.00000   0.00000   1.93168
   A31        1.88412   0.00000   0.00000   0.00000  -0.00001   1.88411
   A32        1.88321   0.00000   0.00000   0.00000   0.00000   1.88321
   A33        1.87676   0.00000   0.00000   0.00001   0.00001   1.87677
    D1        1.94238   0.00000  -0.00021   0.00025   0.00004   1.94242
    D2       -2.27873   0.00000  -0.00016   0.00027   0.00010  -2.27863
    D3       -0.15040   0.00000  -0.00018   0.00024   0.00006  -0.15034
    D4       -1.21636   0.00000  -0.00020   0.00027   0.00007  -1.21629
    D5        0.84572   0.00000  -0.00015   0.00028   0.00013   0.84585
    D6        2.97406   0.00000  -0.00017   0.00026   0.00008   2.97414
    D7        1.87488   0.00000   0.00010   0.00043   0.00053   1.87541
    D8       -2.43383   0.00000   0.00009   0.00043   0.00052  -2.43332
    D9       -0.23794   0.00000   0.00010   0.00039   0.00050  -0.23744
   D10       -1.24907   0.00000   0.00009   0.00042   0.00050  -1.24857
   D11        0.72540   0.00000   0.00008   0.00041   0.00049   0.72589
   D12        2.92130   0.00000   0.00009   0.00038   0.00047   2.92177
   D13        0.82834   0.00000   0.00001  -0.00010  -0.00008   0.82826
   D14        2.89722   0.00000   0.00001  -0.00012  -0.00011   2.89711
   D15       -1.25711   0.00000   0.00000  -0.00009  -0.00009  -1.25720
   D16       -1.24581   0.00000   0.00002  -0.00016  -0.00014  -1.24594
   D17        0.82307   0.00000   0.00001  -0.00018  -0.00016   0.82290
   D18        2.95192   0.00000   0.00001  -0.00015  -0.00014   2.95178
   D19        3.01049   0.00000   0.00003  -0.00013  -0.00011   3.01038
   D20       -1.20382   0.00000   0.00002  -0.00016  -0.00013  -1.20395
   D21        0.92504   0.00000   0.00002  -0.00013  -0.00011   0.92493
   D22        1.05587   0.00000   0.00001   0.00009   0.00010   1.05597
   D23       -3.12850   0.00000   0.00000   0.00011   0.00012  -3.12838
   D24       -1.04314   0.00000   0.00001   0.00011   0.00012  -1.04302
   D25        3.14104   0.00000   0.00001   0.00006   0.00007   3.14111
   D26       -1.04334   0.00000   0.00001   0.00008   0.00009  -1.04325
   D27        1.04202   0.00000   0.00001   0.00008   0.00009   1.04212
   D28       -1.08745   0.00000   0.00000   0.00009   0.00009  -1.08736
   D29        1.01137   0.00000   0.00000   0.00011   0.00011   1.01147
   D30        3.09673   0.00000   0.00001   0.00010   0.00011   3.09684
   D31       -1.05039   0.00000  -0.00006  -0.00002  -0.00009  -1.05048
   D32        1.05245   0.00000  -0.00006  -0.00003  -0.00009   1.05236
   D33        3.13910   0.00000  -0.00006  -0.00002  -0.00009   3.13902
   D34        3.13449   0.00000  -0.00008   0.00000  -0.00008   3.13441
   D35       -1.04585   0.00000  -0.00007  -0.00001  -0.00008  -1.04594
   D36        1.04080   0.00000  -0.00007   0.00000  -0.00008   1.04072
   D37        1.08295   0.00000  -0.00007  -0.00002  -0.00008   1.08286
   D38       -3.09740   0.00000  -0.00006  -0.00003  -0.00009  -3.09748
   D39       -1.01074   0.00000  -0.00006  -0.00002  -0.00008  -1.01083
         Item               Value     Threshold  Converged?
 Maximum Force            0.000009     0.000450     YES
 RMS     Force            0.000002     0.000300     YES
 Maximum Displacement     0.001095     0.001800     YES
 RMS     Displacement     0.000283     0.001200     YES
 Predicted change in Energy=-2.990467D-09
 Optimization completed.
    -- Stationary point found.
                           ----------------------------
                           !   Optimized Parameters   !
                           ! (Angstroms and Degrees)  !
 --------------------------                            --------------------------
 ! Name  Definition              Value          Derivative Info.                !
 --------------------------------------------------------------------------------
 ! R1    R(1,2)                  1.2148         -DE/DX =    0.0                 !
 ! R2    R(1,3)                  1.5224         -DE/DX =    0.0                 !
 ! R3    R(1,7)                  1.5337         -DE/DX =    0.0                 !
 ! R4    R(3,4)                  1.0979         -DE/DX =    0.0                 !
 ! R5    R(3,5)                  1.0968         -DE/DX =    0.0                 !
 ! R6    R(3,6)                  1.0917         -DE/DX =    0.0                 !
 ! R7    R(7,8)                  1.1015         -DE/DX =    0.0                 !
 ! R8    R(7,9)                  1.0987         -DE/DX =    0.0                 !
 ! R9    R(7,10)                 1.5306         -DE/DX =    0.0                 !
 ! R10   R(10,11)                1.0971         -DE/DX =    0.0                 !
 ! R11   R(10,12)                1.5297         -DE/DX =    0.0                 !
 ! R12   R(10,16)                1.5303         -DE/DX =    0.0                 !
 ! R13   R(12,13)                1.0954         -DE/DX =    0.0                 !
 ! R14   R(12,14)                1.0952         -DE/DX =    0.0                 !
 ! R15   R(12,15)                1.0952         -DE/DX =    0.0                 !
 ! R16   R(16,17)                1.0955         -DE/DX =    0.0                 !
 ! R17   R(16,18)                1.0944         -DE/DX =    0.0                 !
 ! R18   R(16,19)                1.0953         -DE/DX =    0.0                 !
 ! A1    A(2,1,3)              121.2862         -DE/DX =    0.0                 !
 ! A2    A(2,1,7)              123.8695         -DE/DX =    0.0                 !
 ! A3    A(3,1,7)              114.8365         -DE/DX =    0.0                 !
 ! A4    A(1,3,4)              109.7641         -DE/DX =    0.0                 !
 ! A5    A(1,3,5)              111.3516         -DE/DX =    0.0                 !
 ! A6    A(1,3,6)              109.7434         -DE/DX =    0.0                 !
 ! A7    A(4,3,5)              106.8805         -DE/DX =    0.0                 !
 ! A8    A(4,3,6)              109.1117         -DE/DX =    0.0                 !
 ! A9    A(5,3,6)              109.9271         -DE/DX =    0.0                 !
 ! A10   A(1,7,8)              105.8371         -DE/DX =    0.0                 !
 ! A11   A(1,7,9)              109.7141         -DE/DX =    0.0                 !
 ! A12   A(1,7,10)             114.4482         -DE/DX =    0.0                 !
 ! A13   A(8,7,9)              105.2889         -DE/DX =    0.0                 !
 ! A14   A(8,7,10)             109.8061         -DE/DX =    0.0                 !
 ! A15   A(9,7,10)             111.2155         -DE/DX =    0.0                 !
 ! A16   A(7,10,11)            109.4469         -DE/DX =    0.0                 !
 ! A17   A(7,10,12)            110.2218         -DE/DX =    0.0                 !
 ! A18   A(7,10,16)            111.1864         -DE/DX =    0.0                 !
 ! A19   A(11,10,12)           107.9169         -DE/DX =    0.0                 !
 ! A20   A(11,10,16)           108.2075         -DE/DX =    0.0                 !
 ! A21   A(12,10,16)           109.7791         -DE/DX =    0.0                 !
 ! A22   A(10,12,13)           111.3136         -DE/DX =    0.0                 !
 ! A23   A(10,12,14)           110.8155         -DE/DX =    0.0                 !
 ! A24   A(10,12,15)           110.8138         -DE/DX =    0.0                 !
 ! A25   A(13,12,14)           108.0329         -DE/DX =    0.0                 !
 ! A26   A(13,12,15)           108.0428         -DE/DX =    0.0                 !
 ! A27   A(14,12,15)           107.6825         -DE/DX =    0.0                 !
 ! A28   A(10,16,17)           111.2634         -DE/DX =    0.0                 !
 ! A29   A(10,16,18)           111.3577         -DE/DX =    0.0                 !
 ! A30   A(10,16,19)           110.6773         -DE/DX =    0.0                 !
 ! A31   A(17,16,18)           107.952          -DE/DX =    0.0                 !
 ! A32   A(17,16,19)           107.9001         -DE/DX =    0.0                 !
 ! A33   A(18,16,19)           107.5305         -DE/DX =    0.0                 !
 ! D1    D(2,1,3,4)            111.29           -DE/DX =    0.0                 !
 ! D2    D(2,1,3,5)           -130.5617         -DE/DX =    0.0                 !
 ! D3    D(2,1,3,6)             -8.617          -DE/DX =    0.0                 !
 ! D4    D(7,1,3,4)            -69.6921         -DE/DX =    0.0                 !
 ! D5    D(7,1,3,5)             48.4562         -DE/DX =    0.0                 !
 ! D6    D(7,1,3,6)            170.4009         -DE/DX =    0.0                 !
 ! D7    D(2,1,7,8)            107.4225         -DE/DX =    0.0                 !
 ! D8    D(2,1,7,9)           -139.4484         -DE/DX =    0.0                 !
 ! D9    D(2,1,7,10)           -13.6328         -DE/DX =    0.0                 !
 ! D10   D(3,1,7,8)            -71.5667         -DE/DX =    0.0                 !
 ! D11   D(3,1,7,9)             41.5624         -DE/DX =    0.0                 !
 ! D12   D(3,1,7,10)           167.378          -DE/DX =    0.0                 !
 ! D13   D(1,7,10,11)           47.4606         -DE/DX =    0.0                 !
 ! D14   D(1,7,10,12)          165.9984         -DE/DX =    0.0                 !
 ! D15   D(1,7,10,16)          -72.0272         -DE/DX =    0.0                 !
 ! D16   D(8,7,10,11)          -71.3794         -DE/DX =    0.0                 !
 ! D17   D(8,7,10,12)           47.1584         -DE/DX =    0.0                 !
 ! D18   D(8,7,10,16)          169.1328         -DE/DX =    0.0                 !
 ! D19   D(9,7,10,11)          172.4884         -DE/DX =    0.0                 !
 ! D20   D(9,7,10,12)          -68.9738         -DE/DX =    0.0                 !
 ! D21   D(9,7,10,16)           53.0007         -DE/DX =    0.0                 !
 ! D22   D(7,10,12,13)          60.497          -DE/DX =    0.0                 !
 ! D23   D(7,10,12,14)        -179.2499         -DE/DX =    0.0                 !
 ! D24   D(7,10,12,15)         -59.7674         -DE/DX =    0.0                 !
 ! D25   D(11,10,12,13)        179.9681         -DE/DX =    0.0                 !
 ! D26   D(11,10,12,14)        -59.7789         -DE/DX =    0.0                 !
 ! D27   D(11,10,12,15)         59.7036         -DE/DX =    0.0                 !
 ! D28   D(16,10,12,13)        -62.3061         -DE/DX =    0.0                 !
 ! D29   D(16,10,12,14)         57.947          -DE/DX =    0.0                 !
 ! D30   D(16,10,12,15)        177.4294         -DE/DX =    0.0                 !
 ! D31   D(7,10,16,17)         -60.183          -DE/DX =    0.0                 !
 ! D32   D(7,10,16,18)          60.3011         -DE/DX =    0.0                 !
 ! D33   D(7,10,16,19)         179.8574         -DE/DX =    0.0                 !
 ! D34   D(11,10,16,17)        179.5931         -DE/DX =    0.0                 !
 ! D35   D(11,10,16,18)        -59.9229         -DE/DX =    0.0                 !
 ! D36   D(11,10,16,19)         59.6335         -DE/DX =    0.0                 !
 ! D37   D(12,10,16,17)         62.0483         -DE/DX =    0.0                 !
 ! D38   D(12,10,16,18)       -177.4677         -DE/DX =    0.0                 !
 ! D39   D(12,10,16,19)        -57.9113         -DE/DX =    0.0                 !
 --------------------------------------------------------------------------------
 GradGradGradGradGradGradGradGradGradGradGradGradGradGradGradGradGradGrad

 Largest change from initial coordinates is atom   17       0.630 Angstoms.
 Leave Link  103 at Tue Feb  7 16:30:37 2017, MaxMem=  1048576000 cpu:         0.1
 (Enter /mnt/data/applications/G09/g09/l202.exe)
                          Input orientation:                          
 ---------------------------------------------------------------------
 Center     Atomic      Atomic             Coordinates (Angstroms)
 Number     Number       Type             X           Y           Z
 ---------------------------------------------------------------------
      1          6    10061002       -2.365666    0.420266    0.264640
      2          8    10081002       -1.830444    1.366972    0.806005
      3          6    10061003       -3.875277    0.367893    0.074562
      4          1    10011000       -4.118425    0.456687   -0.992405
      5          1    10011000       -4.287871   -0.588998    0.416668
      6          1    10011000       -4.344142    1.190725    0.617702
      7          6    10061003       -1.608065   -0.808351   -0.253901
      8          1    10011000       -1.846992   -1.625765    0.444673
      9          1    10011000       -2.026819   -1.121388   -1.220211
     10          6    10061003       -0.090715   -0.626971   -0.340443
     11          1    10011000        0.278584   -0.187767    0.594674
     12          6    10061003        0.594029   -1.982134   -0.526502
     13          1    10011000        0.263135   -2.472154   -1.448626
     14          1    10011000        1.681801   -1.864968   -0.576354
     15          1    10011000        0.369472   -2.649971    0.311911
     16          6    10061003        0.289831    0.307801   -1.490791
     17          1    10011000       -0.050340   -0.088393   -2.453771
     18          1    10011000       -0.151074    1.300885   -1.359897
     19          1    10011000        1.376620    0.433666   -1.543512
 ---------------------------------------------------------------------
                    Distance matrix (angstroms):
                    1          2          3          4          5
     1  C    0.000000
     2  O    1.214821   0.000000
     3  C    1.522432   2.390504   0.000000
     4  H    2.157233   3.049222   1.097918   0.000000
     5  H    2.176373   3.164861   1.096773   1.762855   0.000000
     6  H    2.152354   2.526895   1.091737   1.783874   1.791926
     7  C    1.533735   2.429996   2.575206   2.906479   2.771126
     8  H    2.118414   3.014516   2.868029   3.400178   2.652085
     9  H    2.167094   3.214972   2.703921   2.630025   2.841684
    10  C    2.576477   2.883888   3.935085   4.221590   4.265065
    11  H    2.733255   2.628664   4.223013   4.718881   4.587503
    12  C    3.893228   4.343979   5.085135   5.326550   5.163655
    13  H    4.267548   4.919890   5.245228   5.290021   5.266617
    14  H    4.723510   4.969126   6.024157   6.261453   6.184753
    15  H    4.112124   4.606472   5.213610   5.611932   5.094058
    16  C    3.185255   3.300406   4.449951   4.438837   5.039643
    17  H    3.606830   3.989110   4.607690   4.356836   5.142635
    18  H    2.884272   2.741493   4.098516   4.072788   4.882718
    19  H    4.156236   4.083693   5.495899   5.522660   6.080675
                    6          7          8          9         10
     6  H    0.000000
     7  C    3.498874   0.000000
     8  H    3.768065   1.101480   0.000000
     9  H    3.754168   1.098682   1.748878   0.000000
    10  C    4.723739   1.530601   2.167604   2.183332   0.000000
    11  H    4.823937   2.159780   2.570684   3.079016   1.097145
    12  C    5.980114   2.510238   2.651181   2.844461   1.529692
    13  H    6.238061   2.774346   2.958647   2.668451   2.181279
    14  H    6.861123   3.470393   3.681317   3.836837   2.174879
    15  H    6.087907   2.760862   2.445268   3.228959   2.174825
    16  C    5.167108   2.525411   3.471414   2.735445   1.530332
    17  H    5.432019   2.790031   3.740648   2.548571   2.181250
    18  H    4.637333   2.791940   3.833784   3.066813   2.181642
    19  H    6.162070   3.480524   4.311127   3.755811   2.173799
                   11         12         13         14         15
    11  H    0.000000
    12  C    2.139227   0.000000
    13  H    3.064921   1.095410   0.000000
    14  H    2.480590   1.095199   1.772609   0.000000
    15  H    2.480053   1.095156   1.772686   1.768460   0.000000
    16  C    2.143567   2.503237   2.780403   2.737645   3.464750
    17  H    3.067749   2.777739   2.605935   3.111466   3.793009
    18  H    2.494201   3.468132   3.796744   3.741122   4.321478
    19  H    2.482681   2.735480   3.113301   2.512419   3.737079
                   16         17         18         19
    16  C    0.000000
    17  H    1.095453   0.000000
    18  H    1.094416   1.771102   0.000000
    19  H    1.095323   1.771251   1.766248   0.000000
 Symmetry turned off by external request.
 Stoichiometry    C6H12O
 Framework group  C1[X(C6H12O)]
 Deg. of freedom    51
 Full point group                 C1      NOp   1
 Rotational constants (GHZ):      4.7117736      1.4752221      1.3203235
 Leave Link  202 at Tue Feb  7 16:30:37 2017, MaxMem=  1048576000 cpu:         0.0
 (Enter /mnt/data/applications/G09/g09/l9999.exe)
 1\1\GINC-KIMIK2083\FOpt\ONIOM(B3LYP/6-31G(d):External='./sictwo_files/
 sictwo_g09d01')\Mixed\C6H12O1\IFUNES\07-Feb-2017\0\\#p opt=nomicro oni
 om(B3LYP/6-31G*:external="./sictwo_files/sictwo_g09d01") geom=connecti
 vity nosymm scf(maxcyc=100)\\ONIOM(QM:MM) OPT FREQ with SICTWO V1.0\\0
 ,1\C,-2.3656655964,0.4202660596,0.2646402043\O,-1.8304443679,1.3669715
 927,0.8060048885\C,-3.8752767675,0.3678926634,0.0745617132\H,-4.118425
 2835,0.456687012,-0.9924051558\H,-4.2878707485,-0.5889984713,0.4166680
 76\H,-4.3441419852,1.1907253136,0.6177023822\C,-1.6080647703,-0.808351
 3024,-0.253900725\H,-1.8469924094,-1.6257654366,0.4446731801\H,-2.0268
 190276,-1.1213878056,-1.2202113317\C,-0.0907148386,-0.6269714907,-0.34
 04427554\H,0.2785843905,-0.1877670731,0.5946743258\C,0.594028582,-1.98
 21342706,-0.5265015304\H,0.2631352059,-2.4721539122,-1.4486260662\H,1.
 6818005215,-1.8649676595,-0.5763544342\H,0.3694720946,-2.6499706507,0.
 3119110564\C,0.2898309225,0.3078014538,-1.4907905012\H,-0.0503398723,-
 0.0883933946,-2.4537707744\H,-0.1510737121,1.3008852076,-1.3598966063\
 H,1.3766199924,0.4336664344,-1.5435121659\\Version=EM64L-G09RevD.01\HF
 =0.0059328\RMSD=9.734e-09\RMSF=3.250e-06\Dipole=-0.4974384,-0.871333,-
 0.480519\PG=C01 [X(C6H12O1)]\\@


 GARBAGE IN, GARBAGE OUT
 Job cpu time:       0 days  0 hours 16 minutes 22.7 seconds.
 File lengths (MBytes):  RWF=      6 Int=      0 D2E=      0 Chk=      3 Scr=      1
 Normal termination of Gaussian 09 at Tue Feb  7 16:30:37 2017.
