 Entering Gaussian System, Link 0=g09
 Initial command:
 /mnt/data/applications/G09/g09/l1.exe "/scratch/Gau-10215.inp" -scrdir="/scratch/"
 Entering Link 1 = /mnt/data/applications/G09/g09/l1.exe PID=     10216.
  
 Copyright (c) 1988,1990,1992,1993,1995,1998,2003,2009,2013,
            Gaussian, Inc.  All Rights Reserved.
  
 This is part of the Gaussian(R) 09 program.  It is based on
 the Gaussian(R) 03 system (copyright 2003, Gaussian, Inc.),
 the Gaussian(R) 98 system (copyright 1998, Gaussian, Inc.),
 the Gaussian(R) 94 system (copyright 1995, Gaussian, Inc.),
 the Gaussian 92(TM) system (copyright 1992, Gaussian, Inc.),
 the Gaussian 90(TM) system (copyright 1990, Gaussian, Inc.),
 the Gaussian 88(TM) system (copyright 1988, Gaussian, Inc.),
 the Gaussian 86(TM) system (copyright 1986, Carnegie Mellon
 University), and the Gaussian 82(TM) system (copyright 1983,
 Carnegie Mellon University). Gaussian is a federally registered
 trademark of Gaussian, Inc.
  
 This software contains proprietary and confidential information,
 including trade secrets, belonging to Gaussian, Inc.
  
 This software is provided under written license and may be
 used, copied, transmitted, or stored only in accord with that
 written license.
  
 The following legend is applicable only to US Government
 contracts under FAR:
  
                    RESTRICTED RIGHTS LEGEND
  
 Use, reproduction and disclosure by the US Government is
 subject to restrictions as set forth in subparagraphs (a)
 and (c) of the Commercial Computer Software - Restricted
 Rights clause in FAR 52.227-19.
  
 Gaussian, Inc.
 340 Quinnipiac St., Bldg. 40, Wallingford CT 06492
  
  
 ---------------------------------------------------------------
 Warning -- This program may not be used in any manner that
 competes with the business of Gaussian, Inc. or will provide
 assistance to any competitor of Gaussian, Inc.  The licensee
 of this program is prohibited from giving any competitor of
 Gaussian, Inc. access to this program.  By using this program,
 the user acknowledges that Gaussian, Inc. is engaged in the
 business of creating and licensing software in the field of
 computational chemistry and represents and warrants to the
 licensee that it is not a competitor of Gaussian, Inc. and that
 it will not use this program in any manner prohibited above.
 ---------------------------------------------------------------
  

 Cite this work as:
 Gaussian 09, Revision D.01,
 M. J. Frisch, G. W. Trucks, H. B. Schlegel, G. E. Scuseria, 
 M. A. Robb, J. R. Cheeseman, G. Scalmani, V. Barone, B. Mennucci, 
 G. A. Petersson, H. Nakatsuji, M. Caricato, X. Li, H. P. Hratchian, 
 A. F. Izmaylov, J. Bloino, G. Zheng, J. L. Sonnenberg, M. Hada, 
 M. Ehara, K. Toyota, R. Fukuda, J. Hasegawa, M. Ishida, T. Nakajima, 
 Y. Honda, O. Kitao, H. Nakai, T. Vreven, J. A. Montgomery, Jr., 
 J. E. Peralta, F. Ogliaro, M. Bearpark, J. J. Heyd, E. Brothers, 
 K. N. Kudin, V. N. Staroverov, T. Keith, R. Kobayashi, J. Normand, 
 K. Raghavachari, A. Rendell, J. C. Burant, S. S. Iyengar, J. Tomasi, 
 M. Cossi, N. Rega, J. M. Millam, M. Klene, J. E. Knox, J. B. Cross, 
 V. Bakken, C. Adamo, J. Jaramillo, R. Gomperts, R. E. Stratmann, 
 O. Yazyev, A. J. Austin, R. Cammi, C. Pomelli, J. W. Ochterski, 
 R. L. Martin, K. Morokuma, V. G. Zakrzewski, G. A. Voth, 
 P. Salvador, J. J. Dannenberg, S. Dapprich, A. D. Daniels, 
 O. Farkas, J. B. Foresman, J. V. Ortiz, J. Cioslowski, 
 and D. J. Fox, Gaussian, Inc., Wallingford CT, 2013.
 
 ******************************************
 Gaussian 09:  EM64L-G09RevD.01 24-Apr-2013
                 7-Feb-2017 
 ******************************************
 %nprocshared=8
 Will use up to    8 processors via shared memory.
 %mem=8000MB
 %chk=F_5
 ----------------------------------------------------------------------
 #p opt=nomicro oniom(B3LYP/6-31G*:external="./sictwo_files/sictwo_g09d
 01") geom=connectivity nosymm scf(maxcyc=100)
 ----------------------------------------------------------------------
 1/14=-1,18=20,19=15,26=1,38=1,52=2,57=2/1,3;
 2/9=110,12=2,15=1,17=6,18=5,40=1/2;
 1/14=-1,18=20,19=15,26=1,38=1,52=2,53=3172/20;
 3/11=9,16=1,25=1,30=1,41=9900000,43=2,71=1/1;
 4/20=17,22=1,23=100,24=3,113=1,114=1/2;
 6/7=2,8=2,9=2,10=2/1;
 7/7=1,30=1,33=-1,44=-1/16;
 1/14=-1,18=20,19=15,26=1,52=2,53=2032/20;
 3/5=1,6=6,7=1,11=2,16=1,25=1,30=1,71=1,74=-5/1,2,3;
 4//1;
 5/5=2,7=100,38=5/2;
 6/7=2,8=2,9=2,10=2,28=1/1;
 7/7=1,30=1,33=-1/1,2,3,16;
 1/14=-1,18=20,19=15,26=1,52=2,53=1022/20;
 3/11=9,16=1,25=1,30=1,41=9900000,43=2,71=1/1;
 4/20=17,22=1,23=100,24=3,113=1,114=2/2;
 6/7=2,8=2,9=2,10=2/1;
 7/7=1,30=1,33=-1,44=-1/16;
 1/14=-1,18=20,19=15,26=1,52=2,53=3015/20;
 7/9=1,44=-1/16;
 1/14=-1,18=20,19=15,26=1,52=2/3(2);
 2/9=110,15=1/2;
 99//99;
 2/9=110,15=1/2;
 1/14=-1,18=20,19=15,26=1,52=2,53=3173/20;
 3/11=9,16=1,25=1,30=1,41=9900000,43=2,71=1/1;
 4/16=2,20=17,22=1,23=100,24=3,113=1,114=1/2;
 7/7=1,30=1,33=-1,44=-1/16;
 1/14=-1,18=20,19=15,26=1,52=2,53=2033/20;
 3/5=1,6=6,7=1,11=2,16=1,25=1,30=1,71=1,74=-5/1,2,3;
 4/5=5,16=3,69=1/1;
 5/5=2,7=100,38=5/2;
 7/7=1,30=1,33=-1/1,2,3,16;
 1/14=-1,18=20,19=15,26=1,52=2,53=1023/20;
 3/11=9,16=1,25=1,30=1,41=9900000,43=2,71=1/1;
 4/16=2,20=17,22=1,23=100,24=3,113=1,114=2/2;
 7/7=1,30=1,33=-1,44=-1/16;
 1/14=-1,18=20,19=15,26=1,52=2,53=3015/20;
 7/9=1,44=-1/16;
 1/14=-1,18=20,19=15,26=1,52=2/3(-16);
 2/9=110,15=1/2;
 99//99;
 Leave Link    1 at Tue Feb  7 16:44:47 2017, MaxMem=  1048576000 cpu:         0.7
 (Enter /mnt/data/applications/G09/g09/l101.exe)
 --------------------------------------
 ONIOM(QM:MM) OPT FREQ with SICTWO V1.0
 --------------------------------------
 Symbolic Z-matrix:
 Charge =  0 Multiplicity = 1 for low   level calculation on real  system.
 Charge =  0 Multiplicity = 1 for high  level calculation on model system.
 Charge =  0 Multiplicity = 1 for low   level calculation on model system.
 C-C_R                0    -1.9357    0.18087   0.48372  H 
 C-C_R                0    -0.53395   0.18087   0.48372  H 
 C-C_R                0    -0.10996   1.55166   0.48372  H 
 C-C_R                0    -1.26701   2.34312   0.48362  H 
 H-H_                 0    -2.63729  -0.65237   0.48382  H 
 H-H_                 0     0.11042  -0.69184   0.48375  H 
 H-H_                 0     0.91461   1.90815   0.4837   H 
 O-O_R                0    -2.37543   1.50137   0.48372  H 
 C-C_3                0    -1.42101   3.8754    0.48341  L    H-H_     4     0.        0. 
 C-C_3                0    -0.0277    4.53135   0.48345  L 
 H-H_                 0     0.5099    4.22683  -0.39014  L 
 H-H_                 0    -0.1347    5.59598   0.48334  L 
 H-H_                 0     0.50978   4.22699   1.35717  L 
 C-C_3                0    -2.19478   4.31372   1.7407   L 
 H-H_                 0    -2.15158   5.37887   1.83281  L 
 H-H_                 0    -3.21558   4.00404   1.6573   L 
 H-H_                 0    -1.75478   3.8628    2.60555  L 
 C-C_3                0    -2.19456   4.3134   -0.77411  L 
 H-H_                 0    -2.18511   5.38102  -0.84485  L 
 H-H_                 0    -1.73045   3.8943   -1.64236  L 
 H-H_                 0    -3.20559   3.96921  -0.70886  L 
 
 NAtoms=     21 NQM=       21 NQMF=       0 NMMI=      0 NMMIF=      0
                NMic=       0 NMicF=      0.
                    Isotopes and Nuclear Properties:
 (Nuclear quadrupole moments (NQMom) in fm**2, nuclear magnetic moments (NMagM)
  in nuclear magnetons)

  Atom         1           2           3           4           5           6           7           8           9          10
 IAtWgt=          12          12          12          12           1           1           1          16          12          12
 AtmWgt=  12.0000000  12.0000000  12.0000000  12.0000000   1.0078250   1.0078250   1.0078250  15.9949146  12.0000000  12.0000000
 NucSpn=           0           0           0           0           1           1           1           0           0           0
 AtZEff=   0.0000000   0.0000000   0.0000000   0.0000000   0.0000000   0.0000000   0.0000000   0.0000000   0.0000000   0.0000000
 NQMom=    0.0000000   0.0000000   0.0000000   0.0000000   0.0000000   0.0000000   0.0000000   0.0000000   0.0000000   0.0000000
 NMagM=    0.0000000   0.0000000   0.0000000   0.0000000   2.7928460   2.7928460   2.7928460   0.0000000   0.0000000   0.0000000
 AtZNuc=   6.0000000   6.0000000   6.0000000   6.0000000   1.0000000   1.0000000   1.0000000   8.0000000   6.0000000   6.0000000

  Atom        11          12          13          14          15          16          17          18          19          20
 IAtWgt=           1           1           1          12           1           1           1          12           1           1
 AtmWgt=   1.0078250   1.0078250   1.0078250  12.0000000   1.0078250   1.0078250   1.0078250  12.0000000   1.0078250   1.0078250
 NucSpn=           1           1           1           0           1           1           1           0           1           1
 AtZEff=   0.0000000   0.0000000   0.0000000   0.0000000   0.0000000   0.0000000   0.0000000   0.0000000   0.0000000   0.0000000
 NQMom=    0.0000000   0.0000000   0.0000000   0.0000000   0.0000000   0.0000000   0.0000000   0.0000000   0.0000000   0.0000000
 NMagM=    2.7928460   2.7928460   2.7928460   0.0000000   2.7928460   2.7928460   2.7928460   0.0000000   2.7928460   2.7928460
 AtZNuc=   1.0000000   1.0000000   1.0000000   6.0000000   1.0000000   1.0000000   1.0000000   6.0000000   1.0000000   1.0000000

  Atom        21
 IAtWgt=           1
 AtmWgt=   1.0078250
 NucSpn=           1
 AtZEff=   0.0000000
 NQMom=    0.0000000
 NMagM=    2.7928460
 AtZNuc=   1.0000000
 Leave Link  101 at Tue Feb  7 16:44:47 2017, MaxMem=  1048576000 cpu:         3.1
 (Enter /mnt/data/applications/G09/g09/l103.exe)

 GradGradGradGradGradGradGradGradGradGradGradGradGradGradGradGradGradGrad
 Berny optimization.
 Initialization pass.
                           ----------------------------
                           !    Initial Parameters    !
                           ! (Angstroms and Degrees)  !
 --------------------------                            --------------------------
 ! Name  Definition              Value          Derivative Info.                !
 --------------------------------------------------------------------------------
 ! R1    R(1,2)                  1.4018         estimate D2E/DX2                !
 ! R2    R(1,5)                  1.0893         estimate D2E/DX2                !
 ! R3    R(1,8)                  1.3918         estimate D2E/DX2                !
 ! R4    R(2,3)                  1.4349         estimate D2E/DX2                !
 ! R5    R(2,6)                  1.0848         estimate D2E/DX2                !
 ! R6    R(3,4)                  1.4018         estimate D2E/DX2                !
 ! R7    R(3,7)                  1.0848         estimate D2E/DX2                !
 ! R8    R(4,8)                  1.3918         estimate D2E/DX2                !
 ! R9    R(4,9)                  1.54           estimate D2E/DX2                !
 ! R10   R(9,10)                 1.54           estimate D2E/DX2                !
 ! R11   R(9,14)                 1.54           estimate D2E/DX2                !
 ! R12   R(9,18)                 1.54           estimate D2E/DX2                !
 ! R13   R(10,11)                1.07           estimate D2E/DX2                !
 ! R14   R(10,12)                1.07           estimate D2E/DX2                !
 ! R15   R(10,13)                1.07           estimate D2E/DX2                !
 ! R16   R(14,15)                1.07           estimate D2E/DX2                !
 ! R17   R(14,16)                1.07           estimate D2E/DX2                !
 ! R18   R(14,17)                1.07           estimate D2E/DX2                !
 ! R19   R(18,19)                1.07           estimate D2E/DX2                !
 ! R20   R(18,20)                1.07           estimate D2E/DX2                !
 ! R21   R(18,21)                1.07           estimate D2E/DX2                !
 ! A1    A(2,1,5)              130.0976         estimate D2E/DX2                !
 ! A2    A(2,1,8)              108.4177         estimate D2E/DX2                !
 ! A3    A(5,1,8)              121.4847         estimate D2E/DX2                !
 ! A4    A(1,2,3)              107.1873         estimate D2E/DX2                !
 ! A5    A(1,2,6)              126.4408         estimate D2E/DX2                !
 ! A6    A(3,2,6)              126.372          estimate D2E/DX2                !
 ! A7    A(2,3,4)              107.1858         estimate D2E/DX2                !
 ! A8    A(2,3,7)              126.3724         estimate D2E/DX2                !
 ! A9    A(4,3,7)              126.4419         estimate D2E/DX2                !
 ! A10   A(3,4,8)              108.4137         estimate D2E/DX2                !
 ! A11   A(3,4,9)              130.1121         estimate D2E/DX2                !
 ! A12   A(8,4,9)              121.4742         estimate D2E/DX2                !
 ! A13   A(1,8,4)              108.7956         estimate D2E/DX2                !
 ! A14   A(4,9,10)             109.4712         estimate D2E/DX2                !
 ! A15   A(4,9,14)             109.4712         estimate D2E/DX2                !
 ! A16   A(4,9,18)             109.4712         estimate D2E/DX2                !
 ! A17   A(10,9,14)            109.4712         estimate D2E/DX2                !
 ! A18   A(10,9,18)            109.4712         estimate D2E/DX2                !
 ! A19   A(14,9,18)            109.4713         estimate D2E/DX2                !
 ! A20   A(9,10,11)            109.4712         estimate D2E/DX2                !
 ! A21   A(9,10,12)            109.4712         estimate D2E/DX2                !
 ! A22   A(9,10,13)            109.4712         estimate D2E/DX2                !
 ! A23   A(11,10,12)           109.4713         estimate D2E/DX2                !
 ! A24   A(11,10,13)           109.4712         estimate D2E/DX2                !
 ! A25   A(12,10,13)           109.4712         estimate D2E/DX2                !
 ! A26   A(9,14,15)            109.4712         estimate D2E/DX2                !
 ! A27   A(9,14,16)            109.4712         estimate D2E/DX2                !
 ! A28   A(9,14,17)            109.4712         estimate D2E/DX2                !
 ! A29   A(15,14,16)           109.4713         estimate D2E/DX2                !
 ! A30   A(15,14,17)           109.4712         estimate D2E/DX2                !
 ! A31   A(16,14,17)           109.4712         estimate D2E/DX2                !
 ! A32   A(9,18,19)            109.4712         estimate D2E/DX2                !
 ! A33   A(9,18,20)            109.4712         estimate D2E/DX2                !
 ! A34   A(9,18,21)            109.4712         estimate D2E/DX2                !
 ! A35   A(19,18,20)           109.4713         estimate D2E/DX2                !
 ! A36   A(19,18,21)           109.4712         estimate D2E/DX2                !
 ! A37   A(20,18,21)           109.4712         estimate D2E/DX2                !
 ! D1    D(5,1,2,3)           -179.9933         estimate D2E/DX2                !
 ! D2    D(5,1,2,6)              0.0051         estimate D2E/DX2                !
 ! D3    D(8,1,2,3)              0.0004         estimate D2E/DX2                !
 ! D4    D(8,1,2,6)            179.9987         estimate D2E/DX2                !
 ! D5    D(2,1,8,4)              0.0039         estimate D2E/DX2                !
 ! D6    D(5,1,8,4)            179.9982         estimate D2E/DX2                !
 ! D7    D(1,2,3,4)             -0.0044         estimate D2E/DX2                !
 ! D8    D(1,2,3,7)           -179.9984         estimate D2E/DX2                !
 ! D9    D(6,2,3,4)            179.9972         estimate D2E/DX2                !
 ! D10   D(6,2,3,7)              0.0033         estimate D2E/DX2                !
 ! D11   D(2,3,4,8)              0.0069         estimate D2E/DX2                !
 ! D12   D(2,3,4,9)           -179.9922         estimate D2E/DX2                !
 ! D13   D(7,3,4,8)           -179.9992         estimate D2E/DX2                !
 ! D14   D(7,3,4,9)              0.0017         estimate D2E/DX2                !
 ! D15   D(3,4,8,1)             -0.0067         estimate D2E/DX2                !
 ! D16   D(9,4,8,1)            179.9924         estimate D2E/DX2                !
 ! D17   D(3,4,9,10)            -0.0051         estimate D2E/DX2                !
 ! D18   D(3,4,9,14)          -120.0051         estimate D2E/DX2                !
 ! D19   D(3,4,9,18)           119.9949         estimate D2E/DX2                !
 ! D20   D(8,4,9,10)           179.996          estimate D2E/DX2                !
 ! D21   D(8,4,9,14)            59.996          estimate D2E/DX2                !
 ! D22   D(8,4,9,18)           -60.004          estimate D2E/DX2                !
 ! D23   D(4,9,10,11)           60.0021         estimate D2E/DX2                !
 ! D24   D(4,9,10,12)         -179.9979         estimate D2E/DX2                !
 ! D25   D(4,9,10,13)          -59.9979         estimate D2E/DX2                !
 ! D26   D(14,9,10,11)        -179.998          estimate D2E/DX2                !
 ! D27   D(14,9,10,12)         -59.998          estimate D2E/DX2                !
 ! D28   D(14,9,10,13)          60.002          estimate D2E/DX2                !
 ! D29   D(18,9,10,11)         -59.9979         estimate D2E/DX2                !
 ! D30   D(18,9,10,12)          60.0021         estimate D2E/DX2                !
 ! D31   D(18,9,10,13)        -179.9979         estimate D2E/DX2                !
 ! D32   D(4,9,14,15)          169.9761         estimate D2E/DX2                !
 ! D33   D(4,9,14,16)          -70.0239         estimate D2E/DX2                !
 ! D34   D(4,9,14,17)           49.9761         estimate D2E/DX2                !
 ! D35   D(10,9,14,15)          49.9761         estimate D2E/DX2                !
 ! D36   D(10,9,14,16)         169.9761         estimate D2E/DX2                !
 ! D37   D(10,9,14,17)         -70.0239         estimate D2E/DX2                !
 ! D38   D(18,9,14,15)         -70.0239         estimate D2E/DX2                !
 ! D39   D(18,9,14,16)          49.9761         estimate D2E/DX2                !
 ! D40   D(18,9,14,17)         169.9761         estimate D2E/DX2                !
 ! D41   D(4,9,18,19)         -172.2582         estimate D2E/DX2                !
 ! D42   D(4,9,18,20)          -52.2582         estimate D2E/DX2                !
 ! D43   D(4,9,18,21)           67.7418         estimate D2E/DX2                !
 ! D44   D(10,9,18,19)         -52.2582         estimate D2E/DX2                !
 ! D45   D(10,9,18,20)          67.7418         estimate D2E/DX2                !
 ! D46   D(10,9,18,21)        -172.2582         estimate D2E/DX2                !
 ! D47   D(14,9,18,19)          67.7418         estimate D2E/DX2                !
 ! D48   D(14,9,18,20)        -172.2582         estimate D2E/DX2                !
 ! D49   D(14,9,18,21)         -52.2582         estimate D2E/DX2                !
 --------------------------------------------------------------------------------
 Trust Radius=3.00D-01 FncErr=1.00D-07 GrdErr=1.00D-07
 Number of steps in this run=    117 maximum allowed number of steps=    126.
 GradGradGradGradGradGradGradGradGradGradGradGradGradGradGradGradGradGrad

 Leave Link  103 at Tue Feb  7 16:44:47 2017, MaxMem=  1048576000 cpu:         0.1
 (Enter /mnt/data/applications/G09/g09/l202.exe)
                          Input orientation:                          
 ---------------------------------------------------------------------
 Center     Atomic      Atomic             Coordinates (Angstroms)
 Number     Number       Type             X           Y           Z
 ---------------------------------------------------------------------
      1          6    10061000       -1.935705    0.180867    0.483724
      2          6    10061000       -0.533955    0.180867    0.483724
      3          6    10061000       -0.109957    1.551663    0.483724
      4          6    10061000       -1.267014    2.343116    0.483620
      5          1    10011000       -2.637293   -0.652366    0.483822
      6          1    10011000        0.110418   -0.691839    0.483749
      7          1    10011000        0.914606    1.908155    0.483699
      8          8    10081000       -2.375432    1.501375    0.483715
      9          6    10061003       -1.421012    3.875397    0.483412
     10          6    10061003       -0.027697    4.531348    0.483448
     11          1    10011000        0.509905    4.226826   -0.390137
     12          1    10011000       -0.134696    5.595985    0.483340
     13          1    10011000        0.509783    4.226992    1.357165
     14          6    10061003       -2.194776    4.313721    1.740696
     15          1    10011000       -2.151580    5.378873    1.832805
     16          1    10011000       -3.215581    4.004040    1.657297
     17          1    10011000       -1.754783    3.862799    2.605551
     18          6    10061003       -2.194562    4.313401   -0.774114
     19          1    10011000       -2.185114    5.381019   -0.844851
     20          1    10011000       -1.730449    3.894304   -1.642364
     21          1    10011000       -3.205588    3.969209   -0.708864
 ---------------------------------------------------------------------
                    Distance matrix (angstroms):
                    1          2          3          4          5
     1  C    0.000000
     2  C    1.401750   0.000000
     3  C    2.283076   1.434871   0.000000
     4  C    2.263287   2.283133   1.401848   0.000000
     5  H    1.089267   2.262368   3.353382   3.294021   0.000000
     6  H    2.224463   1.084819   2.254300   3.332907   2.747995
     7  H    3.332836   2.254297   1.084811   2.224558   4.378613
     8  O    1.391798   2.266005   2.266033   1.391804   2.169602
     9  C    3.730209   3.799529   2.668071   1.540000   4.688281
    10  C    4.750493   4.379839   2.980821   2.514810   5.803524
    11  H    4.807747   4.268848   2.881729   2.732994   5.871557
    12  H    5.706762   5.429817   4.044398   3.444314   6.730890
    13  H    4.807748   4.268889   2.881729   2.732961   5.871537
    14  C    4.327537   4.628043   3.681768   2.514809   5.141748
    15  H    5.374560   5.608565   4.542663   3.437816   6.199316
    16  H    4.199049   4.815085   4.127509   2.816576   4.836691
    17  H    4.253411   4.421447   3.542449   2.655173   5.066287
    18  C    4.327471   4.627917   3.681703   2.514809   5.141718
    19  H    5.372978   5.615427   4.553609   3.440436   6.194479
    20  H    4.283922   4.443136   3.554464   2.672221   5.100513
    21  H    4.169701   4.786588   4.104842   2.797189   4.806705
                    6          7          8          9         10
     6  H    0.000000
     7  H    2.721523   0.000000
     8  O    3.315062   3.315090   0.000000
     9  C    4.817149   3.053711   2.558690   0.000000
    10  C    5.225013   2.787307   3.833093   1.540000   0.000000
    11  H    5.011640   2.510699   4.064095   2.148263   1.070000
    12  H    6.292600   3.834205   4.667625   2.148263   1.070000
    13  H    5.011711   2.510743   4.064034   2.148263   1.070000
    14  C    5.652386   4.127353   3.085762   1.540000   2.514809
    15  H    6.617412   4.823637   4.111587   2.148263   2.655173
    16  H    5.872884   4.777919   2.889027   2.148263   3.437816
    17  H    5.359640   3.930461   3.234766   2.148263   2.816577
    18  C    5.652219   4.127254   3.085829   1.540000   2.514809
    19  H    6.626783   4.840877   4.105234   2.148263   2.672221
    20  H    5.379763   3.932079   3.265321   2.148263   2.797189
    21  H    5.843252   4.758797   2.863845   2.148263   3.440436
                   11         12         13         14         15
    11  H    0.000000
    12  H    1.747303   0.000000
    13  H    1.747303   1.747303   0.000000
    14  C    3.444314   2.732961   2.732994   0.000000
    15  H    3.654064   2.436394   2.938693   1.070000   0.000000
    16  H    4.256861   3.661190   3.744079   1.070000   1.747303
    17  H    3.772993   3.183142   2.611391   1.070000   1.747303
    18  C    2.732961   2.732994   3.444314   2.514810   2.816577
    19  H    2.966825   2.452450   3.666487   2.797190   2.677867
    20  H    2.588017   3.156068   3.758523   3.440436   3.802380
    21  H    3.738026   3.673979   4.258980   2.672222   3.091629
                   16         17         18         19         20
    16  H    0.000000
    17  H    1.747303   0.000000
    18  C    2.655174   3.437817   0.000000
    19  H    3.036228   3.794134   1.070000   0.000000
    20  H    3.620141   4.248101   1.070000   1.747303   0.000000
    21  H    2.366438   3.619600   1.070000   1.747303   1.747303
                   21
    21  H    0.000000
 Symmetry turned off by external request.
 Stoichiometry    C8H12O
 Framework group  C1[X(C8H12O)]
 Deg. of freedom    57
 Full point group                 C1      NOp   1
 Rotational constants (GHZ):      3.0435883      1.1938263      1.0542990
 Leave Link  202 at Tue Feb  7 16:44:48 2017, MaxMem=  1048576000 cpu:         0.0
 (Enter /mnt/data/applications/G09/g09/l120.exe)
 ONIOM: Cut between C /H     9 and C     4 factor= 0.723886 0.723886
 ONIOM: saving gridpoint 17
 ONIOM: generating point  3 -- low level on real system.
 Leave Link  120 at Tue Feb  7 16:44:48 2017, MaxMem=  1048576000 cpu:         0.0
 (Enter /mnt/data/applications/G09/g09/l301.exe)
 Standard basis: STO-3G (5D, 7F)
 Ernie: Thresh=  0.10000D-02 Tol=  0.10000D-05 Strict=F.
    57 basis functions,   171 primitive gaussians,    57 cartesian basis functions
    34 alpha electrons       34 beta electrons
       nuclear repulsion energy       454.7007622512 Hartrees.
 IExCor=    0 DFT=F Ex=HF Corr=None ExCW=0 ScaHFX=  1.000000
 ScaDFX=  1.000000  1.000000  1.000000  1.000000 ScalE2=  1.000000  1.000000
 IRadAn=      0 IRanWt=     -1 IRanGd=            0 ICorTp=0 IEmpDi=  4
 NAtoms=   21 NActive=   21 NUniq=   21 SFac= 1.00D+00 NAtFMM=   60 NAOKFM=F Big=F
 Integral buffers will be    131072 words long.
 Raffenetti 1 integral format.
 Two-electron integral symmetry is turned off.
 Leave Link  301 at Tue Feb  7 16:44:48 2017, MaxMem=  1048576000 cpu:         0.4
 (Enter /mnt/data/applications/G09/g09/l402.exe)
 External calculation of energy and first derivatives.
 Running external command "./sictwo_files/sictwo_g09d01 R"
         input file       "/scratch/Gau-10216.EIn"
         output file      "/scratch/Gau-10216.EOu"
         message file     "/scratch/Gau-10216.EMs"
         fchk file        "/scratch/Gau-10216.EFC"
         mat. el file     "/scratch/Gau-10216.EUF"

---------------------------- SICTWO Version 1.0 STARTED -----------------------------

MM calculations started
MM calculations finished ....
Information recovery

---------------------------- SICTWO Version 1.0 FINISHED -----------------------------

 Recovered energy= 0.372182326348E-01 dipole=      0.719584097347     -0.048785362532      0.000000000000
 Energy=    3.721823263E-02 NIter=   0.
 Dipole moment=       0.719584      -0.048785       0.000000
 Leave Link  402 at Tue Feb  7 16:44:51 2017, MaxMem=  1048576000 cpu:        22.7
 (Enter /mnt/data/applications/G09/g09/l601.exe)
 Leave Link  601 at Tue Feb  7 16:44:51 2017, MaxMem=  1048576000 cpu:         0.2
 (Enter /mnt/data/applications/G09/g09/l716.exe)
 Dipole        = 7.19584097D-01-4.87853625D-02 0.00000000D+00
 Cartesian Forces:  Max     0.031088566 RMS     0.011520256
 Leave Link  716 at Tue Feb  7 16:44:51 2017, MaxMem=  1048576000 cpu:         0.3
 (Enter /mnt/data/applications/G09/g09/l120.exe)
 SvSCFP did not find density file   528.
 ONIOM: saving gridpoint  3
 ONIOM: restoring gridpoint 17
 ONIOM: generating point  2 -- high level on model system.
 Leave Link  120 at Tue Feb  7 16:44:51 2017, MaxMem=  1048576000 cpu:         0.0
 (Enter /mnt/data/applications/G09/g09/l301.exe)
 Standard basis: 6-31G(d) (6D, 7F)
 Ernie: Thresh=  0.10000D-02 Tol=  0.10000D-05 Strict=F.
    83 basis functions,   156 primitive gaussians,    83 cartesian basis functions
    18 alpha electrons       18 beta electrons
       nuclear repulsion energy       157.6545175917 Hartrees.
 IExCor=  402 DFT=T Ex+Corr=B3LYP ExCW=0 ScaHFX=  0.200000
 ScaDFX=  0.800000  0.720000  1.000000  0.810000 ScalE2=  1.000000  1.000000
 IRadAn=      0 IRanWt=     -1 IRanGd=            0 ICorTp=0 IEmpDi=  4
 NAtoms=   21 NActive=    9 NUniq=    9 SFac= 1.00D+00 NAtFMM=   60 NAOKFM=F Big=F
 Integral buffers will be    131072 words long.
 Raffenetti 2 integral format.
 Two-electron integral symmetry is turned off.
 Leave Link  301 at Tue Feb  7 16:44:52 2017, MaxMem=  1048576000 cpu:         0.4
 (Enter /mnt/data/applications/G09/g09/l302.exe)
 NPDir=0 NMtPBC=     1 NCelOv=     1 NCel=       1 NClECP=     1 NCelD=      1
         NCelK=      1 NCelE2=     1 NClLst=     1 CellRange=     0.0.
 One-electron integrals computed using PRISM.
 NBasis=    83 RedAO= T EigKep=  1.42D-03  NBF=    83
 NBsUse=    83 1.00D-06 EigRej= -1.00D+00 NBFU=    83
 Precomputing XC quadrature grid using
 IXCGrd= 4 IRadAn=           0 IRanWt=          -1 IRanGd=           0 AccXCQ= 0.00D+00.
 Generated NRdTot=       0 NPtTot=           0 NUsed=           0 NTot=          32
 NSgBfM=    83    83    83    83    83 MxSgAt=     9 MxSgA2=     9.
 Leave Link  302 at Tue Feb  7 16:44:52 2017, MaxMem=  1048576000 cpu:         1.9
 (Enter /mnt/data/applications/G09/g09/l303.exe)
 DipDrv:  MaxL=1.
 Leave Link  303 at Tue Feb  7 16:44:52 2017, MaxMem=  1048576000 cpu:         0.3
 (Enter /mnt/data/applications/G09/g09/l401.exe)
 ExpMin= 1.61D-01 ExpMax= 5.48D+03 ExpMxC= 8.25D+02 IAcc=1 IRadAn=         1 AccDes= 0.00D+00
 Harris functional with IExCor=  402 and IRadAn=       1 diagonalized for initial guess.
 HarFok:  IExCor=  402 AccDes= 0.00D+00 IRadAn=         1 IDoV= 1 UseB2=F ITyADJ=14
 ICtDFT=  3500011 ScaDFX=  1.000000  1.000000  1.000000  1.000000
 FoFCou: FMM=F IPFlag=           0 FMFlag=      100000 FMFlg1=           0
         NFxFlg=           0 DoJE=T BraDBF=F KetDBF=T FulRan=T
         wScrn=  0.000000 ICntrl=     500 IOpCl=  0 I1Cent=   200000004 NGrid=           0
         NMat0=    1 NMatS0=      1 NMatT0=    0 NMatD0=    1 NMtDS0=    0 NMtDT0=    0
 Symmetry not used in FoFCou.
 Harris En= -230.014702655245    
 JPrj=0 DoOrth=F DoCkMO=F.
 Leave Link  401 at Tue Feb  7 16:44:52 2017, MaxMem=  1048576000 cpu:         1.8
 (Enter /mnt/data/applications/G09/g09/l502.exe)
 Closed shell SCF:
 Using DIIS extrapolation, IDIIS=  1040.
 Two-electron integral symmetry not used.
 Keep R1 ints in memory in canonical form, NReq=7014956.
 IVT=       33897 IEndB=       33897 NGot=  1048576000 MDV=  1042464263
 LenX=  1042464263 LenY=  1042456933
 Requested convergence on RMS density matrix=1.00D-08 within 100 cycles.
 Requested convergence on MAX density matrix=1.00D-06.
 Requested convergence on             energy=1.00D-06.
 No special actions if energy rises.
 FoFCou: FMM=F IPFlag=           0 FMFlag=           0 FMFlg1=           0
         NFxFlg=           0 DoJE=F BraDBF=F KetDBF=F FulRan=T
         wScrn=  0.000000 ICntrl=     600 IOpCl=  0 I1Cent=           0 NGrid=           0
         NMat0=    1 NMatS0=   3486 NMatT0=    0 NMatD0=    1 NMtDS0=    0 NMtDT0=    0
 Symmetry not used in FoFCou.
 Integral accuracy reduced to 1.0D-05 until final iterations.

 Cycle   1  Pass 0  IDiag  1:
 E= -229.908113037855    
 DIIS: error= 3.50D-02 at cycle   1 NSaved=   1.
 NSaved= 1 IEnMin= 1 EnMin= -229.908113037855     IErMin= 1 ErrMin= 3.50D-02
 ErrMax= 3.50D-02  0.00D+00 EMaxC= 1.00D-01 BMatC= 9.71D-02 BMatP= 9.71D-02
 IDIUse=3 WtCom= 6.50D-01 WtEn= 3.50D-01
 Coeff-Com:  0.100D+01
 Coeff-En:   0.100D+01
 Coeff:      0.100D+01
 Gap=     0.207 Goal=   None    Shift=    0.000
 GapD=    0.207 DampG=1.000 DampE=0.500 DampFc=0.5000 IDamp=-1.
 Damping current iteration by 5.00D-01
 RMSDP=8.54D-03 MaxDP=1.40D-01              OVMax= 2.27D-01

 Cycle   2  Pass 0  IDiag  1:
 E= -229.946529388626     Delta-E=       -0.038416350771 Rises=F Damp=T
 DIIS: error= 1.05D-02 at cycle   2 NSaved=   2.
 NSaved= 2 IEnMin= 2 EnMin= -229.946529388626     IErMin= 2 ErrMin= 1.05D-02
 ErrMax= 1.05D-02  0.00D+00 EMaxC= 1.00D-01 BMatC= 1.21D-02 BMatP= 9.71D-02
 IDIUse=3 WtCom= 8.95D-01 WtEn= 1.05D-01
 Coeff-Com:  0.132D+00 0.868D+00
 Coeff-En:   0.234D+00 0.766D+00
 Coeff:      0.143D+00 0.857D+00
 Gap=     0.216 Goal=   None    Shift=    0.000
 RMSDP=2.80D-03 MaxDP=3.91D-02 DE=-3.84D-02 OVMax= 1.92D-01

 Cycle   3  Pass 0  IDiag  1:
 E= -229.998720167766     Delta-E=       -0.052190779140 Rises=F Damp=F
 DIIS: error= 1.43D-02 at cycle   3 NSaved=   3.
 NSaved= 3 IEnMin= 3 EnMin= -229.998720167766     IErMin= 2 ErrMin= 1.05D-02
 ErrMax= 1.43D-02  0.00D+00 EMaxC= 1.00D-01 BMatC= 1.41D-02 BMatP= 1.21D-02
 IDIUse=2 WtCom= 0.00D+00 WtEn= 1.00D+00
 Coeff-En:   0.000D+00 0.000D+00 0.100D+01
 Coeff:      0.000D+00 0.000D+00 0.100D+01
 Gap=     0.214 Goal=   None    Shift=    0.000
 RMSDP=3.86D-03 MaxDP=7.09D-02 DE=-5.22D-02 OVMax= 1.53D-01

 Cycle   4  Pass 0  IDiag  1:
 E= -229.951943147647     Delta-E=        0.046777020119 Rises=F Damp=F
 DIIS: error= 3.33D-02 at cycle   4 NSaved=   4.
 NSaved= 4 IEnMin= 3 EnMin= -229.998720167766     IErMin= 2 ErrMin= 1.05D-02
 ErrMax= 3.33D-02  0.00D+00 EMaxC= 1.00D-01 BMatC= 6.28D-02 BMatP= 1.21D-02
 IDIUse=2 WtCom= 0.00D+00 WtEn= 1.00D+00
 Coeff-En:   0.000D+00 0.000D+00 0.764D+00 0.236D+00
 Coeff:      0.000D+00 0.000D+00 0.764D+00 0.236D+00
 Gap=     0.223 Goal=   None    Shift=    0.000
 RMSDP=1.95D-03 MaxDP=3.61D-02 DE= 4.68D-02 OVMax= 8.41D-02

 Cycle   5  Pass 0  IDiag  1:
 E= -230.008678966604     Delta-E=       -0.056735818957 Rises=F Damp=F
 DIIS: error= 7.96D-03 at cycle   5 NSaved=   5.
 NSaved= 5 IEnMin= 5 EnMin= -230.008678966604     IErMin= 5 ErrMin= 7.96D-03
 ErrMax= 7.96D-03  0.00D+00 EMaxC= 1.00D-01 BMatC= 3.91D-03 BMatP= 1.21D-02
 IDIUse=3 WtCom= 9.20D-01 WtEn= 7.96D-02
 Coeff-Com: -0.554D-02 0.244D-01 0.243D+00-0.107D+00 0.845D+00
 Coeff-En:   0.000D+00 0.000D+00 0.266D+00 0.000D+00 0.734D+00
 Coeff:     -0.510D-02 0.224D-01 0.245D+00-0.981D-01 0.836D+00
 Gap=     0.227 Goal=   None    Shift=    0.000
 RMSDP=7.03D-04 MaxDP=1.20D-02 DE=-5.67D-02 OVMax= 2.78D-02

 Cycle   6  Pass 0  IDiag  1:
 E= -230.012490087522     Delta-E=       -0.003811120918 Rises=F Damp=F
 DIIS: error= 4.89D-04 at cycle   6 NSaved=   6.
 NSaved= 6 IEnMin= 6 EnMin= -230.012490087522     IErMin= 6 ErrMin= 4.89D-04
 ErrMax= 4.89D-04  0.00D+00 EMaxC= 1.00D-01 BMatC= 1.30D-05 BMatP= 3.91D-03
 IDIUse=3 WtCom= 9.95D-01 WtEn= 4.89D-03
 Coeff-Com: -0.511D-02 0.121D-01 0.906D-01-0.664D-01 0.433D+00 0.535D+00
 Coeff-En:   0.000D+00 0.000D+00 0.000D+00 0.000D+00 0.000D+00 0.100D+01
 Coeff:     -0.508D-02 0.120D-01 0.902D-01-0.660D-01 0.431D+00 0.538D+00
 Gap=     0.228 Goal=   None    Shift=    0.000
 RMSDP=4.20D-05 MaxDP=8.18D-04 DE=-3.81D-03 OVMax= 1.73D-03

 Cycle   7  Pass 0  IDiag  1:
 E= -230.012503545408     Delta-E=       -0.000013457886 Rises=F Damp=F
 DIIS: error= 4.39D-05 at cycle   7 NSaved=   7.
 NSaved= 7 IEnMin= 7 EnMin= -230.012503545408     IErMin= 7 ErrMin= 4.39D-05
 ErrMax= 4.39D-05  0.00D+00 EMaxC= 1.00D-01 BMatC= 1.50D-07 BMatP= 1.30D-05
 IDIUse=1 WtCom= 1.00D+00 WtEn= 0.00D+00
 Coeff-Com: -0.259D-03-0.253D-04 0.121D-01-0.681D-02 0.537D-01 0.147D+00
 Coeff-Com:  0.794D+00
 Coeff:     -0.259D-03-0.253D-04 0.121D-01-0.681D-02 0.537D-01 0.147D+00
 Coeff:      0.794D+00
 Gap=     0.228 Goal=   None    Shift=    0.000
 RMSDP=4.08D-06 MaxDP=8.85D-05 DE=-1.35D-05 OVMax= 1.05D-04

 Initial convergence to 1.0D-05 achieved.  Increase integral accuracy.
 Cycle   8  Pass 1  IDiag  1:
 E= -230.012530317033     Delta-E=       -0.000026771624 Rises=F Damp=F
 DIIS: error= 1.44D-05 at cycle   1 NSaved=   1.
 NSaved= 1 IEnMin= 1 EnMin= -230.012530317033     IErMin= 1 ErrMin= 1.44D-05
 ErrMax= 1.44D-05  0.00D+00 EMaxC= 1.00D-01 BMatC= 2.55D-08 BMatP= 2.55D-08
 IDIUse=1 WtCom= 1.00D+00 WtEn= 0.00D+00
 Coeff-Com:  0.100D+01
 Coeff:      0.100D+01
 Gap=     0.228 Goal=   None    Shift=    0.000
 RMSDP=4.08D-06 MaxDP=8.85D-05 DE=-2.68D-05 OVMax= 1.54D-04

 Cycle   9  Pass 1  IDiag  1:
 E= -230.012530310734     Delta-E=        0.000000006299 Rises=F Damp=F
 DIIS: error= 2.57D-05 at cycle   2 NSaved=   2.
 NSaved= 2 IEnMin= 1 EnMin= -230.012530317033     IErMin= 1 ErrMin= 1.44D-05
 ErrMax= 2.57D-05  0.00D+00 EMaxC= 1.00D-01 BMatC= 3.46D-08 BMatP= 2.55D-08
 IDIUse=1 WtCom= 1.00D+00 WtEn= 0.00D+00
 Coeff-Com:  0.548D+00 0.452D+00
 Coeff:      0.548D+00 0.452D+00
 Gap=     0.228 Goal=   None    Shift=    0.000
 RMSDP=2.77D-06 MaxDP=7.14D-05 DE= 6.30D-09 OVMax= 1.42D-04

 Cycle  10  Pass 1  IDiag  1:
 E= -230.012530342382     Delta-E=       -0.000000031648 Rises=F Damp=F
 DIIS: error= 8.94D-06 at cycle   3 NSaved=   3.
 NSaved= 3 IEnMin= 3 EnMin= -230.012530342382     IErMin= 3 ErrMin= 8.94D-06
 ErrMax= 8.94D-06  0.00D+00 EMaxC= 1.00D-01 BMatC= 4.60D-09 BMatP= 2.55D-08
 IDIUse=1 WtCom= 1.00D+00 WtEn= 0.00D+00
 Coeff-Com: -0.164D-01 0.264D+00 0.752D+00
 Coeff:     -0.164D-01 0.264D+00 0.752D+00
 Gap=     0.228 Goal=   None    Shift=    0.000
 RMSDP=7.57D-07 MaxDP=1.68D-05 DE=-3.16D-08 OVMax= 3.42D-05

 Cycle  11  Pass 1  IDiag  1:
 E= -230.012530346997     Delta-E=       -0.000000004615 Rises=F Damp=F
 DIIS: error= 1.90D-06 at cycle   4 NSaved=   4.
 NSaved= 4 IEnMin= 4 EnMin= -230.012530346997     IErMin= 4 ErrMin= 1.90D-06
 ErrMax= 1.90D-06  0.00D+00 EMaxC= 1.00D-01 BMatC= 2.10D-10 BMatP= 4.60D-09
 IDIUse=1 WtCom= 1.00D+00 WtEn= 0.00D+00
 Coeff-Com: -0.190D-01 0.164D+00 0.484D+00 0.370D+00
 Coeff:     -0.190D-01 0.164D+00 0.484D+00 0.370D+00
 Gap=     0.228 Goal=   None    Shift=    0.000
 RMSDP=1.38D-07 MaxDP=3.37D-06 DE=-4.62D-09 OVMax= 4.52D-06

 Cycle  12  Pass 1  IDiag  1:
 E= -230.012530347159     Delta-E=       -0.000000000163 Rises=F Damp=F
 DIIS: error= 2.50D-07 at cycle   5 NSaved=   5.
 NSaved= 5 IEnMin= 5 EnMin= -230.012530347159     IErMin= 5 ErrMin= 2.50D-07
 ErrMax= 2.50D-07  0.00D+00 EMaxC= 1.00D-01 BMatC= 3.95D-12 BMatP= 2.10D-10
 IDIUse=1 WtCom= 1.00D+00 WtEn= 0.00D+00
 Coeff-Com: -0.603D-02 0.363D-01 0.113D+00 0.146D+00 0.711D+00
 Coeff:     -0.603D-02 0.363D-01 0.113D+00 0.146D+00 0.711D+00
 Gap=     0.228 Goal=   None    Shift=    0.000
 RMSDP=3.16D-08 MaxDP=5.94D-07 DE=-1.63D-10 OVMax= 1.31D-06

 Cycle  13  Pass 1  IDiag  1:
 E= -230.012530347159     Delta-E=        0.000000000000 Rises=F Damp=F
 DIIS: error= 1.53D-07 at cycle   6 NSaved=   6.
 NSaved= 6 IEnMin= 5 EnMin= -230.012530347159     IErMin= 6 ErrMin= 1.53D-07
 ErrMax= 1.53D-07  0.00D+00 EMaxC= 1.00D-01 BMatC= 1.22D-12 BMatP= 3.95D-12
 IDIUse=1 WtCom= 1.00D+00 WtEn= 0.00D+00
 Coeff-Com: -0.144D-02 0.565D-02 0.204D-01 0.423D-01 0.408D+00 0.525D+00
 Coeff:     -0.144D-02 0.565D-02 0.204D-01 0.423D-01 0.408D+00 0.525D+00
 Gap=     0.228 Goal=   None    Shift=    0.000
 RMSDP=1.48D-08 MaxDP=3.52D-07 DE= 1.71D-13 OVMax= 6.62D-07

 Cycle  14  Pass 1  IDiag  1:
 E= -230.012530347161     Delta-E=       -0.000000000002 Rises=F Damp=F
 DIIS: error= 2.83D-08 at cycle   7 NSaved=   7.
 NSaved= 7 IEnMin= 7 EnMin= -230.012530347161     IErMin= 7 ErrMin= 2.83D-08
 ErrMax= 2.83D-08  0.00D+00 EMaxC= 1.00D-01 BMatC= 9.95D-14 BMatP= 1.22D-12
 IDIUse=1 WtCom= 1.00D+00 WtEn= 0.00D+00
 Coeff-Com:  0.184D-03-0.288D-02-0.706D-02-0.353D-02 0.100D+00 0.270D+00
 Coeff-Com:  0.643D+00
 Coeff:      0.184D-03-0.288D-02-0.706D-02-0.353D-02 0.100D+00 0.270D+00
 Coeff:      0.643D+00
 Gap=     0.228 Goal=   None    Shift=    0.000
 RMSDP=3.64D-09 MaxDP=5.51D-08 DE=-1.71D-12 OVMax= 1.18D-07

 SCF Done:  E(RB3LYP) =  -230.012530347     A.U. after   14 cycles
            NFock= 14  Conv=0.36D-08     -V/T= 2.0112
 KE= 2.274670591668D+02 PE=-8.506464394153D+02 EE= 2.355123323097D+02
 Leave Link  502 at Tue Feb  7 16:44:54 2017, MaxMem=  1048576000 cpu:        14.2
 (Enter /mnt/data/applications/G09/g09/l601.exe)
 Copying SCF densities to generalized density rwf, IOpCl= 0 IROHF=0.

 **********************************************************************

            Population analysis using the SCF density.

 **********************************************************************

 Alpha  occ. eigenvalues --  -19.21386 -10.24277 -10.24045 -10.18957 -10.18915
 Alpha  occ. eigenvalues --   -1.08496  -0.78277  -0.72990  -0.58197  -0.56874
 Alpha  occ. eigenvalues --   -0.52761  -0.44974  -0.43038  -0.39995  -0.39193
 Alpha  occ. eigenvalues --   -0.35779  -0.27062  -0.22022
 Alpha virt. eigenvalues --    0.00753   0.07151   0.10703   0.12251   0.14837
 Alpha virt. eigenvalues --    0.16470   0.18678   0.19844   0.30643   0.35954
 Alpha virt. eigenvalues --    0.41659   0.52101   0.53639   0.56559   0.57972
 Alpha virt. eigenvalues --    0.58124   0.58976   0.61358   0.61865   0.65510
 Alpha virt. eigenvalues --    0.67672   0.79737   0.81456   0.83448   0.90303
 Alpha virt. eigenvalues --    0.90977   0.97744   0.97930   1.00699   1.02750
 Alpha virt. eigenvalues --    1.12601   1.13091   1.35737   1.36955   1.37507
 Alpha virt. eigenvalues --    1.39531   1.48419   1.53330   1.56608   1.56822
 Alpha virt. eigenvalues --    1.67796   1.82169   1.92220   1.98295   1.98791
 Alpha virt. eigenvalues --    2.02558   2.18903   2.20575   2.20924   2.21767
 Alpha virt. eigenvalues --    2.29558   2.36140   2.52632   2.61039   2.61971
 Alpha virt. eigenvalues --    2.64101   2.75811   2.88772   2.92469   3.03827
 Alpha virt. eigenvalues --    3.91658   4.11758   4.12334   4.28861   4.44995
          Condensed to atoms (all electrons):
               1          2          3          4          5          6
     1  C    4.856255   0.576499  -0.053526  -0.104157   0.370192  -0.038549
     2  C    0.576499   4.911976   0.510521  -0.053675  -0.043642   0.360046
     3  C   -0.053526   0.510521   4.911226   0.575925   0.003191  -0.036325
     4  C   -0.104157  -0.053675   0.575925   4.861462   0.004609   0.005606
     5  H    0.370192  -0.043642   0.003191   0.004609   0.532127  -0.000154
     6  H   -0.038549   0.360046  -0.036325   0.005606  -0.000154   0.567878
     7  H    0.005589  -0.036292   0.359899  -0.038367  -0.000109  -0.001995
     8  O    0.307617  -0.055136  -0.055667   0.307389  -0.032321   0.003197
     9  H    0.004493   0.002997  -0.042084   0.366846  -0.000087  -0.000102
               7          8          9
     1  C    0.005589   0.307617   0.004493
     2  C   -0.036292  -0.055136   0.002997
     3  C    0.359899  -0.055667  -0.042084
     4  C   -0.038367   0.307389   0.366846
     5  H   -0.000109  -0.032321  -0.000087
     6  H   -0.001995   0.003197  -0.000102
     7  H    0.567823   0.003193  -0.000071
     8  O    0.003193   7.969871  -0.031352
     9  H   -0.000071  -0.031352   0.532986
 Mulliken charges:
               1
     1  C    0.075587
     2  C   -0.173294
     3  C   -0.173160
     4  C    0.074363
     5  H    0.166193
     6  H    0.140398
     7  H    0.140330
     8  O   -0.416790
     9  H    0.166375
    10  C    0.000000
    11  H    0.000000
    12  H    0.000000
    13  H    0.000000
    14  C    0.000000
    15  H    0.000000
    16  H    0.000000
    17  H    0.000000
    18  C    0.000000
    19  H    0.000000
    20  H    0.000000
    21  H    0.000000
 Sum of Mulliken charges =   0.00000
 Mulliken charges with hydrogens summed into heavy atoms:
               1
     1  C    0.241779
     2  C   -0.032896
     3  C   -0.032830
     4  C    0.240737
     8  O   -0.416790
    10  C    0.000000
    14  C    0.000000
    18  C    0.000000
 Electronic spatial extent (au):  <R**2>=            703.6278
 Charge=              0.0000 electrons
 Dipole moment (field-independent basis, Debye):
    X=              0.6855    Y=             -0.2118    Z=             -0.0001  Tot=              0.7174
 Quadrupole moment (field-independent basis, Debye-Ang):
   XX=            -29.2263   YY=            -23.9039   ZZ=            -31.3781
   XY=              2.4406   XZ=              0.3316   YZ=             -0.1033
 Traceless Quadrupole moment (field-independent basis, Debye-Ang):
   XX=             -1.0569   YY=              4.2656   ZZ=             -3.2087
   XY=              2.4406   XZ=              0.3316   YZ=             -0.1033
 Octapole moment (field-independent basis, Debye-Ang**2):
  XXX=            107.2633  YYY=            -78.3086  ZZZ=            -45.5328  XYY=             31.0403
  XXY=            -40.4609  XXZ=            -14.1364  XZZ=             36.6205  YZZ=            -35.4619
  YYZ=            -11.5647  XYZ=              1.1817
 Hexadecapole moment (field-independent basis, Debye-Ang**3):
 XXXX=           -431.0081 YYYY=           -332.3225 ZZZZ=            -75.0170 XXXY=            145.5712
 XXXZ=             51.8816 YYYX=             91.4702 YYYZ=            -37.8832 ZZZX=             52.9848
 ZZZY=            -51.4063 XXYY=           -136.1124 XXZZ=            -84.9312 YYZZ=            -85.9361
 XXYZ=            -19.5717 YYXZ=             15.0174 ZZXY=             40.2253
 N-N= 1.576545175917D+02 E-N=-8.506464412224D+02  KE= 2.274670591668D+02
 No NMR shielding tensors so no spin-rotation constants.
 Leave Link  601 at Tue Feb  7 16:44:54 2017, MaxMem=  1048576000 cpu:         1.2
 (Enter /mnt/data/applications/G09/g09/l701.exe)
 Compute integral first derivatives.
 ... and contract with generalized density number  0.
 Leave Link  701 at Tue Feb  7 16:44:55 2017, MaxMem=  1048576000 cpu:         1.2
 (Enter /mnt/data/applications/G09/g09/l702.exe)
 L702 exits ... SP integral derivatives will be done elsewhere.
 Leave Link  702 at Tue Feb  7 16:44:55 2017, MaxMem=  1048576000 cpu:         0.2
 (Enter /mnt/data/applications/G09/g09/l703.exe)
 Compute integral first derivatives, UseDBF=F ICtDFT=           0.
 Integral derivatives from FoFJK, PRISM(SPDF).
 Calling FoFJK, ICntrl=      2127 FMM=F ISym2X=0 I1Cent= 0 IOpClX= 0 NMat=1 NMatS=1 NMatT=0.
 FoFJK:  IHMeth= 1 ICntrl=    2127 DoSepK=F KAlg= 0 I1Cent=   0 FoldK=F
 IRaf=         0 NMat=   1 IRICut=       1 DoRegI=T DoRafI=F ISym2E= 0.
 FoFCou: FMM=F IPFlag=           0 FMFlag=      100000 FMFlg1=         800
         NFxFlg=           0 DoJE=F BraDBF=F KetDBF=F FulRan=T
         wScrn=  0.000000 ICntrl=    2127 IOpCl=  0 I1Cent=           0 NGrid=           0
         NMat0=    1 NMatS0=      1 NMatT0=    0 NMatD0=    1 NMtDS0=    0 NMtDT0=    0
 Symmetry not used in FoFCou.
 Leave Link  703 at Tue Feb  7 16:44:56 2017, MaxMem=  1048576000 cpu:         6.3
 (Enter /mnt/data/applications/G09/g09/l716.exe)
 Dipole        = 2.69679260D-01-8.33339155D-02-3.24265903D-05
 Cartesian Forces:  Max     0.043499271 RMS     0.009954570
 Leave Link  716 at Tue Feb  7 16:44:56 2017, MaxMem=  1048576000 cpu:         0.3
 (Enter /mnt/data/applications/G09/g09/l120.exe)
 SvSCFP is copying densities from files   528 and   530 to   603.
 ONIOM: saving gridpoint  2
 ONIOM: restoring gridpoint 17
 ONIOM: generating point  1 -- low level on model system.
 Leave Link  120 at Tue Feb  7 16:44:56 2017, MaxMem=  1048576000 cpu:         0.3
 (Enter /mnt/data/applications/G09/g09/l301.exe)
 Standard basis: STO-3G (5D, 7F)
 Ernie: Thresh=  0.10000D-02 Tol=  0.10000D-05 Strict=F.
    29 basis functions,    87 primitive gaussians,    29 cartesian basis functions
    18 alpha electrons       18 beta electrons
       nuclear repulsion energy       157.6545175917 Hartrees.
 IExCor=    0 DFT=F Ex=HF Corr=None ExCW=0 ScaHFX=  1.000000
 ScaDFX=  1.000000  1.000000  1.000000  1.000000 ScalE2=  1.000000  1.000000
 IRadAn=      0 IRanWt=     -1 IRanGd=            0 ICorTp=0 IEmpDi=  4
 NAtoms=   21 NActive=    9 NUniq=    9 SFac= 1.00D+00 NAtFMM=   60 NAOKFM=F Big=F
 Integral buffers will be    131072 words long.
 Raffenetti 1 integral format.
 Two-electron integral symmetry is turned off.
 Leave Link  301 at Tue Feb  7 16:44:56 2017, MaxMem=  1048576000 cpu:         0.4
 (Enter /mnt/data/applications/G09/g09/l402.exe)
 External calculation of energy and first derivatives.
 Running external command "./sictwo_files/sictwo_g09d01 M"
         input file       "/scratch/Gau-10216.EIn"
         output file      "/scratch/Gau-10216.EOu"
         message file     "/scratch/Gau-10216.EMs"
         fchk file        "/scratch/Gau-10216.EFC"
         mat. el file     "/scratch/Gau-10216.EUF"

---------------------------- SICTWO Version 1.0 STARTED -----------------------------

MM calculations started
MM calculations finished ....
Information recovery

---------------------------- SICTWO Version 1.0 FINISHED -----------------------------

 Recovered energy= 0.154490055344E-01 dipole=      0.736895032439     -0.221107852766      0.000000000000
 Energy=    1.544900553E-02 NIter=   0.
 Dipole moment=       0.736895      -0.221108       0.000000
 Leave Link  402 at Tue Feb  7 16:44:58 2017, MaxMem=  1048576000 cpu:        16.8
 (Enter /mnt/data/applications/G09/g09/l601.exe)
 Leave Link  601 at Tue Feb  7 16:44:59 2017, MaxMem=  1048576000 cpu:         0.2
 (Enter /mnt/data/applications/G09/g09/l716.exe)
 Dipole        = 7.36895032D-01-2.21107853D-01 0.00000000D+00
 Cartesian Forces:  Max     0.030912148 RMS     0.008170969
 Leave Link  716 at Tue Feb  7 16:44:59 2017, MaxMem=  1048576000 cpu:         0.2
 (Enter /mnt/data/applications/G09/g09/l120.exe)
 SvSCFP did not find density file   528.
 ONIOM: saving gridpoint  1
 ONIOM: restoring gridpoint  3
 ONIOM: calculating energy.
 ONIOM: gridpoint  1 method:  low   system:  model energy:     0.015449005534
 ONIOM: gridpoint  2 method:  high  system:  model energy:  -230.012530347161
 ONIOM: gridpoint  3 method:  low   system:  real  energy:     0.037218232635
 ONIOM: extrapolated energy =    -229.990761120060
 ONIOM: calculating first derivatives.
 ONIOM: calculating electric field derivatives.
 ONIOM: Integrating ONIOM file  4 number   619
 ONIOM: Dipole        = 2.52368325D-01 8.89885747D-02-3.24265903D-05
 ONIOM: Dipole moment (Debye):
    X=     0.6415    Y=     0.2262    Z=    -0.0001  Tot=     0.6802
 ONIOM: Integrating ONIOM file  5 number   695
 Saving ESP charges from gridpoint 2
 Leave Link  120 at Tue Feb  7 16:44:59 2017, MaxMem=  1048576000 cpu:         0.0
 (Enter /mnt/data/applications/G09/g09/l716.exe)
 Dipole        = 2.52368325D-01 8.89885747D-02-3.24265903D-05
 -------------------------------------------------------------------
 Center     Atomic                   Forces (Hartrees/Bohr)
 Number     Number              X              Y              Z
 -------------------------------------------------------------------
      1        6           0.043517065    0.021517402    0.000005431
      2        6          -0.029646503    0.004651311    0.000005633
      3        6          -0.026554271    0.003474304   -0.000016043
      4        6           0.020849505   -0.025732374   -0.000113325
      5        1          -0.002846058    0.012898015   -0.000002072
      6        1          -0.002349391    0.001230442    0.000000482
      7        1          -0.001928289   -0.001649444   -0.000000215
      8        8           0.005826380   -0.003399369    0.000004898
      9        6          -0.008391010   -0.018302215   -0.000000994
     10        6          -0.022062758   -0.007507452    0.000021588
     11        1           0.011354319   -0.001080601   -0.011853720
     12        1           0.002613968    0.015702780   -0.000034491
     13        1           0.011329358   -0.001081950    0.011871598
     14        6           0.013282771   -0.007459468   -0.019310574
     15        1          -0.002578465    0.015146963    0.004056343
     16        1          -0.015387472   -0.003766586    0.003649705
     17        1           0.003751407   -0.004316416    0.015149156
     18        6           0.013285638   -0.007317288    0.019339499
     19        1          -0.002779676    0.015144434   -0.003822075
     20        1           0.003986181   -0.004095556   -0.015126977
     21        1          -0.015272615   -0.004056765   -0.003824015
 -------------------------------------------------------------------
 Cartesian Forces:  Max     0.043517065 RMS     0.012480673
 Leave Link  716 at Tue Feb  7 16:44:59 2017, MaxMem=  1048576000 cpu:         0.3
 (Enter /mnt/data/applications/G09/g09/l103.exe)

 GradGradGradGradGradGradGradGradGradGradGradGradGradGradGradGradGradGrad
 Berny optimization.
 FormGI is forming the generalized inverse of G from B-inverse, IUseBI=4.
 Internal  Forces:  Max     0.036559251 RMS     0.008733774
 Search for a local minimum.
 Step number   1 out of a maximum of  117
 All quantities printed in internal units (Hartrees-Bohrs-Radians)
 RMS Force = .87338D-02 SwitMx=.10000D-02 MixMth= 1
 Mixed Optimization -- RFO/linear search
 Second derivative matrix not updated -- first step.
 ITU=  0
     Eigenvalues ---    0.00237   0.00237   0.00237   0.00237   0.01058
     Eigenvalues ---    0.01786   0.01826   0.01889   0.01952   0.01997
     Eigenvalues ---    0.04739   0.05241   0.05241   0.05720   0.05720
     Eigenvalues ---    0.05720   0.05720   0.05720   0.05720   0.15006
     Eigenvalues ---    0.15006   0.16000   0.16000   0.16000   0.16000
     Eigenvalues ---    0.16000   0.16000   0.16000   0.16000   0.16000
     Eigenvalues ---    0.16000   0.16000   0.16000   0.22191   0.24050
     Eigenvalues ---    0.25000   0.28519   0.28519   0.28519   0.28519
     Eigenvalues ---    0.34897   0.35418   0.35419   0.37230   0.37230
     Eigenvalues ---    0.37230   0.37230   0.37230   0.37230   0.37230
     Eigenvalues ---    0.37230   0.37230   0.38263   0.40583   0.44441
     Eigenvalues ---    0.45742   0.46623
 RFO step:  Lambda=-2.36004984D-02 EMin= 2.36824067D-03
 Linear search not attempted -- first point.
 Iteration  1 RMS(Cart)=  0.09358584 RMS(Int)=  0.00285475
 Iteration  2 RMS(Cart)=  0.00393454 RMS(Int)=  0.00015127
 Iteration  3 RMS(Cart)=  0.00000414 RMS(Int)=  0.00015124
 Iteration  4 RMS(Cart)=  0.00000000 RMS(Int)=  0.00015124
 ITry= 1 IFail=0 DXMaxC= 3.84D-01 DCOld= 1.00D+10 DXMaxT= 3.00D-01 DXLimC= 3.00D+00 Rises=F
 Variable       Old X    -DE/DX   Delta X   Delta X   Delta X     New X
                                 (Linear)    (Quad)   (Total)
    R1        2.64892  -0.03656   0.00000  -0.07760  -0.07751   2.57141
    R2        2.05842  -0.00803   0.00000  -0.02156  -0.02156   2.03686
    R3        2.63012  -0.02699   0.00000  -0.05678  -0.05662   2.57350
    R4        2.71151  -0.01136   0.00000  -0.02482  -0.02493   2.68658
    R5        2.05001  -0.00239   0.00000  -0.00631  -0.00631   2.04370
    R6        2.64911  -0.02669   0.00000  -0.05408  -0.05423   2.59487
    R7        2.05000  -0.00236   0.00000  -0.00626  -0.00626   2.04374
    R8        2.63013  -0.02389   0.00000  -0.04883  -0.04882   2.58131
    R9        2.91018  -0.01224   0.00000  -0.03963  -0.03963   2.87055
   R10        2.91018   0.00550   0.00000   0.01780   0.01780   2.92798
   R11        2.91018   0.00325   0.00000   0.01052   0.01052   2.92070
   R12        2.91018   0.00310   0.00000   0.01005   0.01005   2.92023
   R13        2.02201   0.01569   0.00000   0.03963   0.03963   2.06164
   R14        2.02201   0.01536   0.00000   0.03880   0.03880   2.06081
   R15        2.02201   0.01569   0.00000   0.03964   0.03964   2.06164
   R16        2.02201   0.01532   0.00000   0.03871   0.03871   2.06071
   R17        2.02201   0.01549   0.00000   0.03911   0.03911   2.06112
   R18        2.02201   0.01561   0.00000   0.03942   0.03942   2.06143
   R19        2.02201   0.01534   0.00000   0.03874   0.03874   2.06075
   R20        2.02201   0.01561   0.00000   0.03942   0.03942   2.06143
   R21        2.02201   0.01550   0.00000   0.03916   0.03916   2.06116
    A1        2.27063   0.00521   0.00000   0.03859   0.03849   2.30912
    A2        1.89225   0.01116   0.00000   0.04036   0.04057   1.93282
    A3        2.12031  -0.01637   0.00000  -0.07896  -0.07906   2.04125
    A4        1.87077  -0.00494   0.00000  -0.01889  -0.01893   1.85184
    A5        2.20681   0.00128   0.00000   0.00297   0.00299   2.20980
    A6        2.20561   0.00366   0.00000   0.01592   0.01594   2.22154
    A7        1.87074  -0.00408   0.00000  -0.01011  -0.01037   1.86038
    A8        2.20561   0.00109   0.00000  -0.00011   0.00002   2.20564
    A9        2.20683   0.00299   0.00000   0.01022   0.01034   2.21717
   A10        1.89218   0.00536   0.00000   0.02212   0.02198   1.91416
   A11        2.27088   0.02131   0.00000   0.07662   0.07669   2.34757
   A12        2.12012  -0.02667   0.00000  -0.09874  -0.09867   2.02146
   A13        1.89884  -0.00751   0.00000  -0.03348  -0.03326   1.86558
   A14        1.91063   0.00593   0.00000   0.04609   0.04617   1.95680
   A15        1.91063  -0.00266   0.00000  -0.01864  -0.01868   1.89195
   A16        1.91063  -0.00265   0.00000  -0.01879  -0.01883   1.89181
   A17        1.91063  -0.00199   0.00000  -0.00849  -0.00838   1.90225
   A18        1.91063  -0.00206   0.00000  -0.00909  -0.00898   1.90165
   A19        1.91063   0.00343   0.00000   0.00892   0.00869   1.91932
   A20        1.91063   0.00521   0.00000   0.02943   0.02901   1.93964
   A21        1.91063   0.00364   0.00000   0.01768   0.01747   1.92810
   A22        1.91063   0.00517   0.00000   0.02925   0.02883   1.93947
   A23        1.91063  -0.00481   0.00000  -0.02836  -0.02856   1.88208
   A24        1.91063  -0.00442   0.00000  -0.01984  -0.02043   1.89020
   A25        1.91063  -0.00478   0.00000  -0.02816  -0.02836   1.88227
   A26        1.91063   0.00398   0.00000   0.02227   0.02197   1.93260
   A27        1.91063   0.00499   0.00000   0.02681   0.02650   1.93713
   A28        1.91063   0.00427   0.00000   0.02299   0.02271   1.93334
   A29        1.91063  -0.00439   0.00000  -0.02338  -0.02370   1.88694
   A30        1.91063  -0.00400   0.00000  -0.02109  -0.02136   1.88927
   A31        1.91063  -0.00485   0.00000  -0.02760  -0.02787   1.88276
   A32        1.91063   0.00385   0.00000   0.02156   0.02126   1.93189
   A33        1.91063   0.00418   0.00000   0.02242   0.02215   1.93278
   A34        1.91063   0.00502   0.00000   0.02709   0.02678   1.93742
   A35        1.91063  -0.00391   0.00000  -0.02074  -0.02099   1.88964
   A36        1.91063  -0.00432   0.00000  -0.02286  -0.02317   1.88746
   A37        1.91063  -0.00482   0.00000  -0.02746  -0.02773   1.88290
    D1       -3.14148   0.00000   0.00000  -0.00004  -0.00004  -3.14151
    D2        0.00009   0.00000   0.00000  -0.00002  -0.00002   0.00007
    D3        0.00001   0.00000   0.00000  -0.00002  -0.00002  -0.00002
    D4        3.14157   0.00000   0.00000  -0.00001  -0.00001   3.14157
    D5        0.00007   0.00000   0.00000  -0.00003  -0.00003   0.00004
    D6        3.14156   0.00000   0.00000  -0.00001  -0.00001   3.14155
    D7       -0.00008   0.00000   0.00000   0.00006   0.00006  -0.00002
    D8       -3.14156   0.00000   0.00000  -0.00003  -0.00003   3.14159
    D9        3.14154   0.00000   0.00000   0.00004   0.00004   3.14159
   D10        0.00006   0.00000   0.00000  -0.00005  -0.00005   0.00001
   D11        0.00012   0.00000   0.00000  -0.00008  -0.00008   0.00004
   D12       -3.14146  -0.00001   0.00000  -0.00019  -0.00019   3.14154
   D13       -3.14158   0.00000   0.00000   0.00001   0.00002  -3.14156
   D14        0.00003   0.00000   0.00000  -0.00010  -0.00010  -0.00007
   D15       -0.00012   0.00000   0.00000   0.00006   0.00006  -0.00005
   D16        3.14146   0.00001   0.00000   0.00017   0.00016  -3.14157
   D17       -0.00009   0.00002   0.00000   0.00005   0.00005  -0.00003
   D18       -2.09448   0.00045   0.00000  -0.00636  -0.00617  -2.10066
   D19        2.09431  -0.00049   0.00000   0.00564   0.00545   2.09975
   D20        3.14152   0.00002   0.00000  -0.00007  -0.00007   3.14145
   D21        1.04713   0.00045   0.00000  -0.00649  -0.00630   1.04083
   D22       -1.04727  -0.00050   0.00000   0.00551   0.00532  -1.04194
   D23        1.04723   0.00045   0.00000   0.00527   0.00537   1.05260
   D24       -3.14156  -0.00002   0.00000  -0.00061  -0.00062   3.14101
   D25       -1.04716  -0.00049   0.00000  -0.00637  -0.00647  -1.05364
   D26       -3.14156  -0.00039   0.00000   0.00547   0.00561  -3.13595
   D27       -1.04716  -0.00087   0.00000  -0.00041  -0.00038  -1.04755
   D28        1.04723  -0.00134   0.00000  -0.00616  -0.00624   1.04099
   D29       -1.04716   0.00133   0.00000   0.00563   0.00571  -1.04145
   D30        1.04723   0.00085   0.00000  -0.00026  -0.00028   1.04695
   D31       -3.14156   0.00039   0.00000  -0.00601  -0.00614   3.13549
   D32        2.96664   0.00304   0.00000   0.04737   0.04737   3.01401
   D33       -1.22215   0.00315   0.00000   0.04878   0.04881  -1.17334
   D34        0.87225   0.00289   0.00000   0.04548   0.04550   0.91774
   D35        0.87225  -0.00137   0.00000   0.00753   0.00752   0.87977
   D36        2.96664  -0.00126   0.00000   0.00894   0.00896   2.97560
   D37       -1.22215  -0.00153   0.00000   0.00564   0.00565  -1.21650
   D38       -1.22215   0.00026   0.00000   0.01840   0.01837  -1.20378
   D39        0.87225   0.00038   0.00000   0.01982   0.01981   0.89206
   D40        2.96664   0.00011   0.00000   0.01651   0.01649   2.98314
   D41       -3.00647  -0.00288   0.00000  -0.04202  -0.04202  -3.04850
   D42       -0.91208  -0.00276   0.00000  -0.04049  -0.04052  -0.95259
   D43        1.18232  -0.00303   0.00000  -0.04381  -0.04384   1.13847
   D44       -0.91208   0.00150   0.00000  -0.00264  -0.00262  -0.91470
   D45        1.18232   0.00162   0.00000  -0.00111  -0.00112   1.18120
   D46       -3.00647   0.00135   0.00000  -0.00443  -0.00444  -3.01092
   D47        1.18232  -0.00010   0.00000  -0.01314  -0.01311   1.16921
   D48       -3.00647   0.00002   0.00000  -0.01162  -0.01160  -3.01807
   D49       -0.91208  -0.00024   0.00000  -0.01494  -0.01493  -0.92701
         Item               Value     Threshold  Converged?
 Maximum Force            0.036559     0.000450     NO 
 RMS     Force            0.008734     0.000300     NO 
 Maximum Displacement     0.384460     0.001800     NO 
 RMS     Displacement     0.094410     0.001200     NO 
 Predicted change in Energy=-1.283035D-02
 Lowest energy point so far.  Saving SCF results.
 GradGradGradGradGradGradGradGradGradGradGradGradGradGradGradGradGradGrad

 Leave Link  103 at Tue Feb  7 16:44:59 2017, MaxMem=  1048576000 cpu:         0.2
 (Enter /mnt/data/applications/G09/g09/l202.exe)
                          Input orientation:                          
 ---------------------------------------------------------------------
 Center     Atomic      Atomic             Coordinates (Angstroms)
 Number     Number       Type             X           Y           Z
 ---------------------------------------------------------------------
      1          6    10061000       -1.950657    0.288191    0.483678
      2          6    10061000       -0.594213    0.180229    0.483423
      3          6    10061000       -0.092767    1.510537    0.483325
      4          6    10061000       -1.185866    2.341604    0.483507
      5          1    10011000       -2.737071   -0.448919    0.483892
      6          1    10011000       -0.020135   -0.736301    0.483327
      7          1    10011000        0.948281    1.803560    0.483131
      8          8    10081000       -2.330405    1.596010    0.483766
      9          6    10061003       -1.377848    3.848450    0.483587
     10          6    10061003       -0.027672    4.608532    0.483477
     11          1    10011000        0.562247    4.362309   -0.400599
     12          1    10011000       -0.196485    5.685921    0.482941
     13          1    10011000        0.561848    4.362916    1.367992
     14          6    10061003       -2.174603    4.238688    1.749162
     15          1    10011000       -2.223759    5.322880    1.855290
     16          1    10011000       -3.194865    3.855983    1.701975
     17          1    10011000       -1.704328    3.828861    2.644069
     18          6    10061003       -2.173695    4.238652   -0.782264
     19          1    10011000       -2.252243    5.322858   -0.869005
     20          1    10011000       -1.683219    3.858471   -1.679412
     21          1    10011000       -3.183023    3.826317   -0.752099
 ---------------------------------------------------------------------
                    Distance matrix (angstroms):
                    1          2          3          4          5
     1  C    0.000000
     2  C    1.360733   0.000000
     3  C    2.223935   1.421678   0.000000
     4  C    2.191212   2.240891   1.373149   0.000000
     5  H    1.077858   2.233309   3.291172   3.192687   0.000000
     6  H    2.185520   1.081478   2.248012   3.291265   2.732093
     7  H    3.271114   2.239306   1.081501   2.200926   4.319200
     8  O    1.361837   2.240267   2.239270   1.365972   2.084972
     9  C    3.606045   3.750990   2.667822   1.519027   4.507202
    10  C    4.728977   4.464397   3.098679   2.545659   5.737478
    11  H    4.867758   4.428169   3.056627   2.814390   5.900486
    12  H    5.675616   5.520039   4.176672   3.487597   6.640094
    13  H    4.868068   4.428748   3.057323   2.814698   5.900699
    14  C    4.154279   4.535506   3.657757   2.485641   4.887835
    15  H    5.225323   5.566353   4.577922   3.441949   5.954651
    16  H    3.970068   4.664699   4.075442   2.795368   4.497274
    17  H    4.155035   4.383293   3.555358   2.673718   4.902277
    18  C    4.154335   4.535143   3.657128   2.485311   4.888135
    19  H    5.221933   5.569987   4.585403   3.443011   5.948008
    20  H    4.182988   4.403777   3.566478   2.688209   4.933974
    21  H    3.945150   4.639225   4.054478   2.778440   4.472604
                    6          7          8          9         10
     6  H    0.000000
     7  H    2.718220   0.000000
     8  O    3.282837   3.285249   0.000000
     9  C    4.781561   3.097169   2.445578   0.000000
    10  C    5.344838   2.969908   3.791816   1.549420   0.000000
    11  H    5.207333   2.734446   4.099018   2.193127   1.090972
    12  H    6.424643   4.047619   4.613133   2.184473   1.090534
    13  H    5.208008   2.735436   4.099116   2.193004   1.090975
    14  C    5.567278   4.157534   2.934152   1.545568   2.519535
    15  H    6.591806   4.932572   3.972658   2.184279   2.686068
    16  H    5.714287   4.781598   2.709022   2.187709   3.475943
    17  H    5.324098   3.975907   3.169307   2.185098   2.843804
    18  C    5.566839   4.156637   2.934441   1.545318   2.518795
    19  H    6.597311   4.945411   3.965538   2.183563   2.699664
    20  H    5.343709   3.977945   3.196392   2.184472   2.825158
    21  H    5.687497   4.762879   2.688604   2.187708   3.477751
                   11         12         13         14         15
    11  H    0.000000
    12  H    1.763027   0.000000
    13  H    1.768591   1.763158   0.000000
    14  C    3.482398   2.758759   2.765662   0.000000
    15  H    3.711275   2.474870   2.986402   1.090482   0.000000
    16  H    4.335097   3.718199   3.805445   1.090699   1.765881
    17  H    3.833005   3.223777   2.655022   1.090860   1.767505
    18  C    2.765201   2.757661   3.481700   2.531425   2.852147
    19  H    3.010550   2.487110   3.720853   2.834827   2.724443
    20  H    2.632743   3.197769   3.818568   3.484414   3.864038
    21  H    3.799722   3.728654   4.336679   2.728235   3.155687
                   16         17         18         19         20
    16  H    0.000000
    17  H    1.763512   0.000000
    18  C    2.713054   3.482526   0.000000
    19  H    3.106476   3.856673   1.090503   0.000000
    20  H    3.703898   4.323634   1.090862   1.767761   0.000000
    21  H    2.454282   3.704120   1.090721   1.766254   1.763620
                   21
    21  H    0.000000
 Symmetry turned off by external request.
 Stoichiometry    C8H12O
 Framework group  C1[X(C8H12O)]
 Deg. of freedom    57
 Full point group                 C1      NOp   1
 Rotational constants (GHZ):      3.0555244      1.2267805      1.0870345
 Leave Link  202 at Tue Feb  7 16:44:59 2017, MaxMem=  1048576000 cpu:         0.0
 (Enter /mnt/data/applications/G09/g09/l120.exe)
 SvSCFP did not find density file   528.
 ONIOM: saving gridpoint 17
 ONIOM: restoring gridpoint  3
 ONIOM: restoring gridpoint  3 on chk file.
 ONIOM: generating point  3 -- low level on real system.
 Leave Link  120 at Tue Feb  7 16:44:59 2017, MaxMem=  1048576000 cpu:         0.0
 (Enter /mnt/data/applications/G09/g09/l301.exe)
 Standard basis: STO-3G (5D, 7F)
 Ernie: Thresh=  0.10000D-02 Tol=  0.10000D-05 Strict=F.
    57 basis functions,   171 primitive gaussians,    57 cartesian basis functions
    34 alpha electrons       34 beta electrons
       nuclear repulsion energy       458.5590459136 Hartrees.
 IExCor=    0 DFT=F Ex=HF Corr=None ExCW=0 ScaHFX=  1.000000
 ScaDFX=  1.000000  1.000000  1.000000  1.000000 ScalE2=  1.000000  1.000000
 IRadAn=      0 IRanWt=     -1 IRanGd=            0 ICorTp=0 IEmpDi=  4
 NAtoms=   21 NActive=   21 NUniq=   21 SFac= 1.00D+00 NAtFMM=   60 NAOKFM=F Big=F
 Integral buffers will be    131072 words long.
 Raffenetti 1 integral format.
 Two-electron integral symmetry is turned off.
 Leave Link  301 at Tue Feb  7 16:44:59 2017, MaxMem=  1048576000 cpu:         0.4
 (Enter /mnt/data/applications/G09/g09/l402.exe)
 External calculation of energy and first derivatives.
 Running external command "./sictwo_files/sictwo_g09d01 R"
         input file       "/scratch/Gau-10216.EIn"
         output file      "/scratch/Gau-10216.EOu"
         message file     "/scratch/Gau-10216.EMs"
         fchk file        "/scratch/Gau-10216.EFC"
         mat. el file     "/scratch/Gau-10216.EUF"

---------------------------- SICTWO Version 1.0 STARTED -----------------------------

MM calculations started
MM calculations finished ....
Information recovery

---------------------------- SICTWO Version 1.0 FINISHED -----------------------------

 Recovered energy= 0.299923676205E-01 dipole=      0.660569545897     -0.086948105803      0.000000000000
 Energy=    2.999236762E-02 NIter=   0.
 Dipole moment=       0.660570      -0.086948       0.000000
 Leave Link  402 at Tue Feb  7 16:45:02 2017, MaxMem=  1048576000 cpu:        20.6
 (Enter /mnt/data/applications/G09/g09/l716.exe)
 Dipole        = 6.60569546D-01-8.69481058D-02 0.00000000D+00
 Cartesian Forces:  Max     0.024668967 RMS     0.007469456
 Leave Link  716 at Tue Feb  7 16:45:02 2017, MaxMem=  1048576000 cpu:         0.2
 (Enter /mnt/data/applications/G09/g09/l120.exe)
 SvSCFP did not find density file   528.
 ONIOM: saving gridpoint  3
 ONIOM: restoring gridpoint  2
 ONIOM: restoring gridpoint  2 on chk file.
 ONIOM: generating point  2 -- high level on model system.
 Leave Link  120 at Tue Feb  7 16:45:02 2017, MaxMem=  1048576000 cpu:         0.0
 (Enter /mnt/data/applications/G09/g09/l301.exe)
 Standard basis: 6-31G(d) (6D, 7F)
 Ernie: Thresh=  0.10000D-02 Tol=  0.10000D-05 Strict=F.
    83 basis functions,   156 primitive gaussians,    83 cartesian basis functions
    18 alpha electrons       18 beta electrons
       nuclear repulsion energy       160.6234931808 Hartrees.
 IExCor=  402 DFT=T Ex+Corr=B3LYP ExCW=0 ScaHFX=  0.200000
 ScaDFX=  0.800000  0.720000  1.000000  0.810000 ScalE2=  1.000000  1.000000
 IRadAn=      0 IRanWt=     -1 IRanGd=            0 ICorTp=0 IEmpDi=  4
 NAtoms=   21 NActive=    9 NUniq=    9 SFac= 1.00D+00 NAtFMM=   60 NAOKFM=F Big=F
 Integral buffers will be    131072 words long.
 Raffenetti 2 integral format.
 Two-electron integral symmetry is turned off.
 Leave Link  301 at Tue Feb  7 16:45:03 2017, MaxMem=  1048576000 cpu:         0.4
 (Enter /mnt/data/applications/G09/g09/l302.exe)
 NPDir=0 NMtPBC=     1 NCelOv=     1 NCel=       1 NClECP=     1 NCelD=      1
         NCelK=      1 NCelE2=     1 NClLst=     1 CellRange=     0.0.
 One-electron integrals computed using PRISM.
 NBasis=    83 RedAO= T EigKep=  1.16D-03  NBF=    83
 NBsUse=    83 1.00D-06 EigRej= -1.00D+00 NBFU=    83
 Precomputing XC quadrature grid using
 IXCGrd= 4 IRadAn=           0 IRanWt=          -1 IRanGd=           0 AccXCQ= 0.00D+00.
 Generated NRdTot=       0 NPtTot=           0 NUsed=           0 NTot=          32
 NSgBfM=    83    83    83    83    83 MxSgAt=     9 MxSgA2=     9.
 Leave Link  302 at Tue Feb  7 16:45:03 2017, MaxMem=  1048576000 cpu:         1.8
 (Enter /mnt/data/applications/G09/g09/l303.exe)
 DipDrv:  MaxL=1.
 Leave Link  303 at Tue Feb  7 16:45:03 2017, MaxMem=  1048576000 cpu:         0.3
 (Enter /mnt/data/applications/G09/g09/l401.exe)
 Initial guess from the checkpoint file:  "F_5.chk"
 B after Tr=    -0.115742   -0.075383   -0.000813
         Rot=    0.999555   -0.000016   -0.000097    0.029814 Ang=  -3.42 deg.
 Guess basis will be translated and rotated to current coordinates.
 JPrj=2 DoOrth=T DoCkMO=T.
 Generating alternative initial guess.
 ExpMin= 1.61D-01 ExpMax= 5.48D+03 ExpMxC= 8.25D+02 IAcc=1 IRadAn=         1 AccDes= 0.00D+00
 Harris functional with IExCor=  402 and IRadAn=       1 diagonalized for initial guess.
 HarFok:  IExCor=  402 AccDes= 0.00D+00 IRadAn=         1 IDoV= 1 UseB2=F ITyADJ=14
 ICtDFT=  3500011 ScaDFX=  1.000000  1.000000  1.000000  1.000000
 FoFCou: FMM=F IPFlag=           0 FMFlag=      100000 FMFlg1=           0
         NFxFlg=           0 DoJE=T BraDBF=F KetDBF=T FulRan=T
         wScrn=  0.000000 ICntrl=     500 IOpCl=  0 I1Cent=   200000004 NGrid=           0
         NMat0=    1 NMatS0=      1 NMatT0=    0 NMatD0=    1 NMtDS0=    0 NMtDT0=    0
 Symmetry not used in FoFCou.
 Harris En= -230.028191921515    
 Leave Link  401 at Tue Feb  7 16:45:03 2017, MaxMem=  1048576000 cpu:         2.5
 (Enter /mnt/data/applications/G09/g09/l502.exe)
 Closed shell SCF:
 Using DIIS extrapolation, IDIIS=  1040.
 Two-electron integral symmetry not used.
 Keep R1 ints in memory in canonical form, NReq=7014956.
 IVT=       33897 IEndB=       33897 NGot=  1048576000 MDV=  1042464263
 LenX=  1042464263 LenY=  1042456933
 Requested convergence on RMS density matrix=1.00D-08 within 100 cycles.
 Requested convergence on MAX density matrix=1.00D-06.
 Requested convergence on             energy=1.00D-06.
 No special actions if energy rises.
 FoFCou: FMM=F IPFlag=           0 FMFlag=           0 FMFlg1=           0
         NFxFlg=           0 DoJE=F BraDBF=F KetDBF=F FulRan=T
         wScrn=  0.000000 ICntrl=     600 IOpCl=  0 I1Cent=           0 NGrid=           0
         NMat0=    1 NMatS0=   3486 NMatT0=    0 NMatD0=    1 NMtDS0=    0 NMtDT0=    0
 Symmetry not used in FoFCou.
 Integral accuracy reduced to 1.0D-05 until final iterations.

 Cycle   1  Pass 0  IDiag  1:
 E= -230.018192846050    
 DIIS: error= 3.68D-03 at cycle   1 NSaved=   1.
 NSaved= 1 IEnMin= 1 EnMin= -230.018192846050     IErMin= 1 ErrMin= 3.68D-03
 ErrMax= 3.68D-03  0.00D+00 EMaxC= 1.00D-01 BMatC= 1.35D-03 BMatP= 1.35D-03
 IDIUse=3 WtCom= 9.63D-01 WtEn= 3.68D-02
 Coeff-Com:  0.100D+01
 Coeff-En:   0.100D+01
 Coeff:      0.100D+01
 Gap=     1.501 Goal=   None    Shift=    0.000
 GapD=    1.501 DampG=2.000 DampE=1.000 DampFc=2.0000 IDamp=-1.
 RMSDP=6.63D-04 MaxDP=8.30D-03              OVMax= 9.84D-03

 Cycle   2  Pass 0  IDiag  1:
 E= -230.019648660078     Delta-E=       -0.001455814028 Rises=F Damp=F
 DIIS: error= 1.83D-03 at cycle   2 NSaved=   2.
 NSaved= 2 IEnMin= 2 EnMin= -230.019648660078     IErMin= 2 ErrMin= 1.83D-03
 ErrMax= 1.83D-03  0.00D+00 EMaxC= 1.00D-01 BMatC= 2.41D-04 BMatP= 1.35D-03
 IDIUse=3 WtCom= 9.82D-01 WtEn= 1.83D-02
 Coeff-Com:  0.233D+00 0.767D+00
 Coeff-En:   0.000D+00 0.100D+01
 Coeff:      0.229D+00 0.771D+00
 Gap=     0.240 Goal=   None    Shift=    0.000
 RMSDP=2.81D-04 MaxDP=3.25D-03 DE=-1.46D-03 OVMax= 5.63D-03

 Cycle   3  Pass 0  IDiag  1:
 E= -230.019815828867     Delta-E=       -0.000167168790 Rises=F Damp=F
 DIIS: error= 9.02D-04 at cycle   3 NSaved=   3.
 NSaved= 3 IEnMin= 3 EnMin= -230.019815828867     IErMin= 3 ErrMin= 9.02D-04
 ErrMax= 9.02D-04  0.00D+00 EMaxC= 1.00D-01 BMatC= 7.30D-05 BMatP= 2.41D-04
 IDIUse=3 WtCom= 9.91D-01 WtEn= 9.02D-03
 Coeff-Com: -0.949D-02 0.349D+00 0.660D+00
 Coeff-En:   0.000D+00 0.205D+00 0.795D+00
 Coeff:     -0.940D-02 0.348D+00 0.662D+00
 Gap=     0.241 Goal=   None    Shift=    0.000
 RMSDP=1.11D-04 MaxDP=1.22D-03 DE=-1.67D-04 OVMax= 2.18D-03

 Cycle   4  Pass 0  IDiag  1:
 E= -230.019888012166     Delta-E=       -0.000072183298 Rises=F Damp=F
 DIIS: error= 1.11D-04 at cycle   4 NSaved=   4.
 NSaved= 4 IEnMin= 4 EnMin= -230.019888012166     IErMin= 4 ErrMin= 1.11D-04
 ErrMax= 1.11D-04  0.00D+00 EMaxC= 1.00D-01 BMatC= 1.25D-06 BMatP= 7.30D-05
 IDIUse=3 WtCom= 9.99D-01 WtEn= 1.11D-03
 Coeff-Com: -0.593D-02 0.127D+00 0.268D+00 0.611D+00
 Coeff-En:   0.000D+00 0.000D+00 0.000D+00 0.100D+01
 Coeff:     -0.592D-02 0.127D+00 0.268D+00 0.611D+00
 Gap=     0.241 Goal=   None    Shift=    0.000
 RMSDP=2.08D-05 MaxDP=3.47D-04 DE=-7.22D-05 OVMax= 7.37D-04

 Cycle   5  Pass 0  IDiag  1:
 E= -230.019888602352     Delta-E=       -0.000000590186 Rises=F Damp=F
 DIIS: error= 9.27D-05 at cycle   5 NSaved=   5.
 NSaved= 5 IEnMin= 5 EnMin= -230.019888602352     IErMin= 5 ErrMin= 9.27D-05
 ErrMax= 9.27D-05  0.00D+00 EMaxC= 1.00D-01 BMatC= 7.11D-07 BMatP= 1.25D-06
 IDIUse=1 WtCom= 1.00D+00 WtEn= 0.00D+00
 Coeff-Com: -0.282D-02 0.192D-01 0.583D-01 0.429D+00 0.496D+00
 Coeff:     -0.282D-02 0.192D-01 0.583D-01 0.429D+00 0.496D+00
 Gap=     0.241 Goal=   None    Shift=    0.000
 RMSDP=9.51D-06 MaxDP=1.60D-04 DE=-5.90D-07 OVMax= 3.32D-04

 Initial convergence to 1.0D-05 achieved.  Increase integral accuracy.
 Cycle   6  Pass 1  IDiag  1:
 E= -230.019903964235     Delta-E=       -0.000015361882 Rises=F Damp=F
 DIIS: error= 1.27D-05 at cycle   1 NSaved=   1.
 NSaved= 1 IEnMin= 1 EnMin= -230.019903964235     IErMin= 1 ErrMin= 1.27D-05
 ErrMax= 1.27D-05  0.00D+00 EMaxC= 1.00D-01 BMatC= 3.26D-08 BMatP= 3.26D-08
 IDIUse=1 WtCom= 1.00D+00 WtEn= 0.00D+00
 Coeff-Com:  0.100D+01
 Coeff:      0.100D+01
 Gap=     0.241 Goal=   None    Shift=    0.000
 RMSDP=9.51D-06 MaxDP=1.60D-04 DE=-1.54D-05 OVMax= 1.50D-04

 Cycle   7  Pass 1  IDiag  1:
 E= -230.019903940563     Delta-E=        0.000000023672 Rises=F Damp=F
 DIIS: error= 3.03D-05 at cycle   2 NSaved=   2.
 NSaved= 2 IEnMin= 1 EnMin= -230.019903964235     IErMin= 1 ErrMin= 1.27D-05
 ErrMax= 3.03D-05  0.00D+00 EMaxC= 1.00D-01 BMatC= 6.35D-08 BMatP= 3.26D-08
 IDIUse=1 WtCom= 1.00D+00 WtEn= 0.00D+00
 Coeff-Com:  0.595D+00 0.405D+00
 Coeff:      0.595D+00 0.405D+00
 Gap=     0.241 Goal=   None    Shift=    0.000
 RMSDP=3.12D-06 MaxDP=5.78D-05 DE= 2.37D-08 OVMax= 1.18D-04

 Cycle   8  Pass 1  IDiag  1:
 E= -230.019903995907     Delta-E=       -0.000000055344 Rises=F Damp=F
 DIIS: error= 8.13D-06 at cycle   3 NSaved=   3.
 NSaved= 3 IEnMin= 3 EnMin= -230.019903995907     IErMin= 3 ErrMin= 8.13D-06
 ErrMax= 8.13D-06  0.00D+00 EMaxC= 1.00D-01 BMatC= 3.45D-09 BMatP= 3.26D-08
 IDIUse=1 WtCom= 1.00D+00 WtEn= 0.00D+00
 Coeff-Com:  0.934D-01 0.193D+00 0.713D+00
 Coeff:      0.934D-01 0.193D+00 0.713D+00
 Gap=     0.241 Goal=   None    Shift=    0.000
 RMSDP=8.59D-07 MaxDP=1.82D-05 DE=-5.53D-08 OVMax= 3.09D-05

 Cycle   9  Pass 1  IDiag  1:
 E= -230.019903997939     Delta-E=       -0.000000002033 Rises=F Damp=F
 DIIS: error= 2.91D-06 at cycle   4 NSaved=   4.
 NSaved= 4 IEnMin= 4 EnMin= -230.019903997939     IErMin= 4 ErrMin= 2.91D-06
 ErrMax= 2.91D-06  0.00D+00 EMaxC= 1.00D-01 BMatC= 1.11D-09 BMatP= 3.45D-09
 IDIUse=1 WtCom= 1.00D+00 WtEn= 0.00D+00
 Coeff-Com: -0.150D-01 0.716D-01 0.454D+00 0.489D+00
 Coeff:     -0.150D-01 0.716D-01 0.454D+00 0.489D+00
 Gap=     0.241 Goal=   None    Shift=    0.000
 RMSDP=3.70D-07 MaxDP=8.41D-06 DE=-2.03D-09 OVMax= 1.46D-05

 Cycle  10  Pass 1  IDiag  1:
[...]
   D15       -0.00058   0.00003   0.00056   0.00005   0.00061   0.00003
   D16        3.14132   0.00001   0.00012   0.00002   0.00014   3.14146
   D17       -0.00096  -0.00001  -0.00037   0.00039   0.00002  -0.00093
   D18       -2.09418  -0.00001  -0.00037   0.00041   0.00004  -2.09414
   D19        2.09231  -0.00001  -0.00038   0.00035  -0.00003   2.09228
   D20        3.14023   0.00001   0.00021   0.00044   0.00065   3.14088
   D21        1.04701   0.00001   0.00020   0.00046   0.00066   1.04767
   D22       -1.04969   0.00001   0.00020   0.00039   0.00060  -1.04909
   D23        1.04956   0.00000  -0.00011   0.00008  -0.00002   1.04954
   D24       -3.14139   0.00000  -0.00015   0.00011  -0.00003  -3.14143
   D25       -1.04912  -0.00001  -0.00017   0.00011  -0.00006  -1.04918
   D26       -3.13133   0.00001  -0.00004   0.00010   0.00005  -3.13128
   D27       -1.03910   0.00000  -0.00008   0.00013   0.00004  -1.03906
   D28        1.05317   0.00000  -0.00011   0.00012   0.00002   1.05319
   D29       -1.05275   0.00000  -0.00010   0.00009  -0.00001  -1.05277
   D30        1.03948   0.00000  -0.00014   0.00012  -0.00002   1.03945
   D31        3.13175   0.00000  -0.00016   0.00011  -0.00005   3.13170
   D32        3.12450   0.00000  -0.00002   0.00011   0.00009   3.12459
   D33       -1.06421   0.00000   0.00003   0.00005   0.00007  -1.06414
   D34        1.02784   0.00000   0.00000   0.00012   0.00012   1.02796
   D35        1.00687   0.00000  -0.00006   0.00015   0.00009   1.00695
   D36        3.10134   0.00000  -0.00002   0.00009   0.00007   3.10141
   D37       -1.08979   0.00000  -0.00004   0.00016   0.00011  -1.08968
   D38       -1.06206   0.00000  -0.00001   0.00019   0.00017  -1.06189
   D39        1.03241   0.00000   0.00003   0.00013   0.00016   1.03257
   D40        3.12447   0.00000   0.00001   0.00020   0.00020   3.12467
   D41       -3.12485   0.00001   0.00015  -0.00006   0.00010  -3.12476
   D42       -1.02822   0.00001   0.00017  -0.00008   0.00009  -1.02814
   D43        1.06385   0.00001   0.00011  -0.00001   0.00010   1.06395
   D44       -1.00720   0.00000   0.00017  -0.00012   0.00006  -1.00714
   D45        1.08943   0.00000   0.00019  -0.00014   0.00005   1.08948
   D46       -3.10169   0.00000   0.00013  -0.00007   0.00006  -3.10163
   D47        1.06171  -0.00001   0.00010  -0.00014  -0.00004   1.06167
   D48       -3.12485  -0.00001   0.00012  -0.00017  -0.00005  -3.12490
   D49       -1.03277  -0.00001   0.00006  -0.00010  -0.00004  -1.03281
         Item               Value     Threshold  Converged?
 Maximum Force            0.000037     0.000450     YES
 RMS     Force            0.000012     0.000300     YES
 Maximum Displacement     0.001233     0.001800     YES
 RMS     Displacement     0.000255     0.001200     YES
 Predicted change in Energy=-7.644373D-08
 Optimization completed.
    -- Stationary point found.
                           ----------------------------
                           !   Optimized Parameters   !
                           ! (Angstroms and Degrees)  !
 --------------------------                            --------------------------
 ! Name  Definition              Value          Derivative Info.                !
 --------------------------------------------------------------------------------
 ! R1    R(1,2)                  1.3597         -DE/DX =    0.0                 !
 ! R2    R(1,5)                  1.0793         -DE/DX =    0.0                 !
 ! R3    R(1,8)                  1.3595         -DE/DX =    0.0                 !
 ! R4    R(2,3)                  1.4322         -DE/DX =    0.0                 !
 ! R5    R(2,6)                  1.0809         -DE/DX =    0.0                 !
 ! R6    R(3,4)                  1.3689         -DE/DX =    0.0                 !
 ! R7    R(3,7)                  1.0816         -DE/DX =    0.0                 !
 ! R8    R(4,8)                  1.3709         -DE/DX =    0.0                 !
 ! R9    R(4,9)                  1.5091         -DE/DX =    0.0                 !
 ! R10   R(9,10)                 1.5394         -DE/DX =    0.0                 !
 ! R11   R(9,14)                 1.5387         -DE/DX =    0.0                 !
 ! R12   R(9,18)                 1.5387         -DE/DX =    0.0                 !
 ! R13   R(10,11)                1.0965         -DE/DX =    0.0                 !
 ! R14   R(10,12)                1.0962         -DE/DX =    0.0                 !
 ! R15   R(10,13)                1.0965         -DE/DX =    0.0                 !
 ! R16   R(14,15)                1.096          -DE/DX =    0.0                 !
 ! R17   R(14,16)                1.0963         -DE/DX =    0.0                 !
 ! R18   R(14,17)                1.0965         -DE/DX =    0.0                 !
 ! R19   R(18,19)                1.096          -DE/DX =    0.0                 !
 ! R20   R(18,20)                1.0965         -DE/DX =    0.0                 !
 ! R21   R(18,21)                1.0963         -DE/DX =    0.0                 !
 ! A1    A(2,1,5)              133.9205         -DE/DX =    0.0                 !
 ! A2    A(2,1,8)              110.5079         -DE/DX =    0.0                 !
 ! A3    A(5,1,8)              115.5716         -DE/DX =    0.0                 !
 ! A4    A(1,2,3)              105.9892         -DE/DX =    0.0                 !
 ! A5    A(1,2,6)              126.779          -DE/DX =    0.0                 !
 ! A6    A(3,2,6)              127.2318         -DE/DX =    0.0                 !
 ! A7    A(2,3,4)              106.7981         -DE/DX =    0.0                 !
 ! A8    A(2,3,7)              126.3655         -DE/DX =    0.0                 !
 ! A9    A(4,3,7)              126.8365         -DE/DX =    0.0                 !
 ! A10   A(3,4,8)              109.1732         -DE/DX =    0.0                 !
 ! A11   A(3,4,9)              134.4445         -DE/DX =    0.0                 !
 ! A12   A(8,4,9)              116.3822         -DE/DX =    0.0                 !
 ! A13   A(1,8,4)              107.5315         -DE/DX =    0.0                 !
 ! A14   A(4,9,10)             110.948          -DE/DX =    0.0                 !
 ! A15   A(4,9,14)             109.5214         -DE/DX =    0.0                 !
 ! A16   A(4,9,18)             109.5215         -DE/DX =    0.0                 !
 ! A17   A(10,9,14)            108.6478         -DE/DX =    0.0                 !
 ! A18   A(10,9,18)            108.6494         -DE/DX =    0.0                 !
 ! A19   A(14,9,18)            109.5286         -DE/DX =    0.0                 !
 ! A20   A(9,10,11)            111.486          -DE/DX =    0.0                 !
 ! A21   A(9,10,12)            111.1338         -DE/DX =    0.0                 !
 ! A22   A(9,10,13)            111.4856         -DE/DX =    0.0                 !
 ! A23   A(11,10,12)           107.4741         -DE/DX =    0.0                 !
 ! A24   A(11,10,13)           107.5767         -DE/DX =    0.0                 !
 ! A25   A(12,10,13)           107.4761         -DE/DX =    0.0                 !
 ! A26   A(9,14,15)            111.1763         -DE/DX =    0.0                 !
 ! A27   A(9,14,16)            111.6164         -DE/DX =    0.0                 !
 ! A28   A(9,14,17)            111.2479         -DE/DX =    0.0                 !
 ! A29   A(15,14,16)           107.4833         -DE/DX =    0.0                 !
 ! A30   A(15,14,17)           107.778          -DE/DX =    0.0                 !
 ! A31   A(16,14,17)           107.336          -DE/DX =    0.0                 !
 ! A32   A(9,18,19)            111.1755         -DE/DX =    0.0                 !
 ! A33   A(9,18,20)            111.2486         -DE/DX =    0.0                 !
 ! A34   A(9,18,21)            111.6164         -DE/DX =    0.0                 !
 ! A35   A(19,18,20)           107.7769         -DE/DX =    0.0                 !
 ! A36   A(19,18,21)           107.4842         -DE/DX =    0.0                 !
 ! A37   A(20,18,21)           107.3362         -DE/DX =    0.0                 !
 ! D1    D(5,1,2,3)            180.0155         -DE/DX =    0.0                 !
 ! D2    D(5,1,2,6)             -0.0032         -DE/DX =    0.0                 !
 ! D3    D(8,1,2,3)              0.0157         -DE/DX =    0.0                 !
 ! D4    D(8,1,2,6)            179.9969         -DE/DX =    0.0                 !
 ! D5    D(2,1,8,4)              0.0101         -DE/DX =    0.0                 !
 ! D6    D(5,1,8,4)            180.0102         -DE/DX =    0.0                 !
 ! D7    D(1,2,3,4)             -0.0353         -DE/DX =    0.0                 !
 ! D8    D(1,2,3,7)           -180.0158         -DE/DX =    0.0                 !
 ! D9    D(6,2,3,4)           -180.0165         -DE/DX =    0.0                 !
 ! D10   D(6,2,3,7)              0.003          -DE/DX =    0.0                 !
 ! D11   D(2,3,4,8)              0.0424         -DE/DX =    0.0                 !
 ! D12   D(2,3,4,9)           -179.9796         -DE/DX =    0.0                 !
 ! D13   D(7,3,4,8)            180.0227         -DE/DX =    0.0                 !
 ! D14   D(7,3,4,9)              0.0008         -DE/DX =    0.0                 !
 ! D15   D(3,4,8,1)             -0.0332         -DE/DX =    0.0                 !
 ! D16   D(9,4,8,1)            179.9843         -DE/DX =    0.0                 !
 ! D17   D(3,4,9,10)            -0.0547         -DE/DX =    0.0                 !
 ! D18   D(3,4,9,14)          -119.9877         -DE/DX =    0.0                 !
 ! D19   D(3,4,9,18)           119.8803         -DE/DX =    0.0                 !
 ! D20   D(8,4,9,10)           179.9221         -DE/DX =    0.0                 !
 ! D21   D(8,4,9,14)            59.9892         -DE/DX =    0.0                 !
 ! D22   D(8,4,9,18)           -60.1428         -DE/DX =    0.0                 !
 ! D23   D(4,9,10,11)           60.1354         -DE/DX =    0.0                 !
 ! D24   D(4,9,10,12)         -179.9886         -DE/DX =    0.0                 !
 ! D25   D(4,9,10,13)          -60.1104         -DE/DX =    0.0                 !
 ! D26   D(14,9,10,11)        -179.4122         -DE/DX =    0.0                 !
 ! D27   D(14,9,10,12)         -59.5362         -DE/DX =    0.0                 !
 ! D28   D(14,9,10,13)          60.3421         -DE/DX =    0.0                 !
 ! D29   D(18,9,10,11)         -60.3183         -DE/DX =    0.0                 !
 ! D30   D(18,9,10,12)          59.5578         -DE/DX =    0.0                 !
 ! D31   D(18,9,10,13)         179.436          -DE/DX =    0.0                 !
 ! D32   D(4,9,14,15)          179.0207         -DE/DX =    0.0                 !
 ! D33   D(4,9,14,16)          -60.9749         -DE/DX =    0.0                 !
 ! D34   D(4,9,14,17)           58.891          -DE/DX =    0.0                 !
 ! D35   D(10,9,14,15)          57.6892         -DE/DX =    0.0                 !
 ! D36   D(10,9,14,16)         177.6936         -DE/DX =    0.0                 !
 ! D37   D(10,9,14,17)         -62.4404         -DE/DX =    0.0                 !
 ! D38   D(18,9,14,15)         -60.8516         -DE/DX =    0.0                 !
 ! D39   D(18,9,14,16)          59.1528         -DE/DX =    0.0                 !
 ! D40   D(18,9,14,17)         179.0188         -DE/DX =    0.0                 !
 ! D41   D(4,9,18,19)         -179.0409         -DE/DX =    0.0                 !
 ! D42   D(4,9,18,20)          -58.9128         -DE/DX =    0.0                 !
 ! D43   D(4,9,18,21)           60.954          -DE/DX =    0.0                 !
 ! D44   D(10,9,18,19)         -57.7084         -DE/DX =    0.0                 !
 ! D45   D(10,9,18,20)          62.4197         -DE/DX =    0.0                 !
 ! D46   D(10,9,18,21)        -177.7135         -DE/DX =    0.0                 !
 ! D47   D(14,9,18,19)          60.8314         -DE/DX =    0.0                 !
 ! D48   D(14,9,18,20)        -179.0405         -DE/DX =    0.0                 !
 ! D49   D(14,9,18,21)         -59.1736         -DE/DX =    0.0                 !
 --------------------------------------------------------------------------------
 Lowest energy point so far.  Saving SCF results.
 GradGradGradGradGradGradGradGradGradGradGradGradGradGradGradGradGradGrad

 Largest change from initial coordinates is atom   16       0.206 Angstoms.
 Leave Link  103 at Tue Feb  7 16:45:59 2017, MaxMem=  1048576000 cpu:         0.2
 (Enter /mnt/data/applications/G09/g09/l202.exe)
                          Input orientation:                          
 ---------------------------------------------------------------------
 Center     Atomic      Atomic             Coordinates (Angstroms)
 Number     Number       Type             X           Y           Z
 ---------------------------------------------------------------------
      1          6    10061000       -1.948067    0.273711    0.482296
      2          6    10061000       -0.591992    0.174009    0.481770
      3          6    10061000       -0.097605    1.518134    0.482882
      4          6    10061000       -1.190979    2.341820    0.483200
      5          1    10011000       -2.751730   -0.446730    0.482082
      6          1    10011000       -0.010044   -0.736867    0.481007
      7          1    10011000        0.941232    1.819379    0.483077
      8          8    10081000       -2.329694    1.578524    0.483302
      9          6    10061003       -1.386703    3.838127    0.483860
     10          6    10061003       -0.032534    4.570332    0.485623
     11          1    10011000        0.563257    4.314952   -0.398714
     12          1    10011000       -0.171184    5.657706    0.486310
     13          1    10011000        0.561678    4.313597    1.370630
     14          6    10061003       -2.172203    4.253390    1.740153
     15          1    10011000       -2.314983    5.339402    1.776820
     16          1    10011000       -3.165199    3.789534    1.767288
     17          1    10011000       -1.646533    3.953770    2.654573
     18          6    10061003       -2.169752    4.254823   -0.773489
     19          1    10011000       -2.312764    5.340840   -0.809001
     20          1    10011000       -1.642124    3.956591   -1.687235
     21          1    10011000       -3.162555    3.790708   -0.803273
 ---------------------------------------------------------------------
                    Distance matrix (angstroms):
                    1          2          3          4          5
     1  C    0.000000
     2  C    1.359735   0.000000
     3  C    2.229977   1.432164   0.000000
     4  C    2.202330   2.249043   1.368914   0.000000
     5  H    1.079310   2.247173   3.302283   3.195615   0.000000
     6  H    2.185681   1.080906   2.256701   3.297412   2.756995
     7  H    3.276757   2.249004   1.081633   2.195283   4.332807
     8  O    1.359477   2.234340   2.232906   1.370872   2.068760
     9  C    3.608350   3.749311   2.654080   1.509053   4.497031
    10  C    4.704277   4.431779   3.052892   2.511626   5.706570
    11  H    4.838858   4.388309   3.006017   2.783588   5.868436
    12  H    5.669632   5.499822   4.140227   3.469163   6.627471
    13  H    4.838247   4.388305   3.006221   2.783387   5.867615
    14  C    4.179747   4.552136   3.655996   2.489343   4.899971
    15  H    5.241339   5.597065   4.603599   3.452873   5.945285
    16  H    3.936194   4.620170   4.027293   2.764471   4.446194
    17  H    4.283987   4.485502   3.612166   2.742403   5.030465
    18  C    4.180358   4.551708   3.655370   2.489346   4.900995
    19  H    5.241779   5.596722   4.603148   3.452869   5.946053
    20  H    4.285331   4.485007   3.611235   2.742590   5.032533
    21  H    3.936614   4.619485   4.026501   2.764308   4.447110
                    6          7          8          9         10
     6  H    0.000000
     7  H    2.727513   0.000000
     8  O    3.277471   3.279781   0.000000
     9  C    4.777632   3.081335   2.448476   0.000000
    10  C    5.307248   2.918213   3.771984   1.539449   0.000000
    11  H    5.159792   2.673631   4.078621   2.192862   1.096466
    12  H    6.396606   3.996278   4.615073   2.188233   1.096179
    13  H    5.159989   2.674498   4.077745   2.192857   1.096466
    14  C    5.582386   4.147062   2.959625   1.538741   2.500496
    15  H    6.626682   4.966615   3.977135   2.187984   2.732807
    16  H    5.665494   4.732175   2.689842   2.193762   3.473600
    17  H    5.422597   3.995942   3.289821   2.189265   2.772993
    18  C    5.581672   4.145910   2.961027   1.538743   2.500522
    19  H    6.626097   4.965747   3.978109   2.187973   2.732981
    20  H    5.421577   3.993952   3.292291   2.189275   2.772863
    21  H    5.664506   4.730951   2.691224   2.193766   3.473629
                   11         12         13         14         15
    11  H    0.000000
    12  H    1.767954   0.000000
    13  H    1.769345   1.767976   0.000000
    14  C    3.472935   2.747418   2.759397   0.000000
    15  H    3.750561   2.522421   3.080981   1.095971   0.000000
    16  H    4.343847   3.754344   3.784387   1.096330   1.767780
    17  H    3.786316   3.127526   2.579570   1.096478   1.771229
    18  C    2.759241   2.747626   3.472954   2.513644   2.775154
    19  H    3.080954   2.522815   3.750791   2.774977   2.585822
    20  H    2.579227   3.127580   3.786124   3.480813   3.790063
    21  H    3.784201   3.754598   4.343867   2.768373   3.126293
                   16         17         18         19         20
    16  H    0.000000
    17  H    1.766520   0.000000
    18  C    2.768204   3.480805   0.000000
    19  H    3.125774   3.790010   1.095968   0.000000
    20  H    3.779072   4.341811   1.096478   1.771214   0.000000
    21  H    2.570562   3.779102   1.096334   1.767792   1.766527
                   21
    21  H    0.000000
 Symmetry turned off by external request.
 Stoichiometry    C8H12O
 Framework group  C1[X(C8H12O)]
 Deg. of freedom    57
 Full point group                 C1      NOp   1
 Rotational constants (GHZ):      3.0727514      1.2264060      1.0864175
 Leave Link  202 at Tue Feb  7 16:45:59 2017, MaxMem=  1048576000 cpu:         0.0
 (Enter /mnt/data/applications/G09/g09/l9999.exe)
 1\1\GINC-KIMIK2130\FOpt\ONIOM(B3LYP/6-31G(d):External='./sictwo_files/
 sictwo_g09d01')\Mixed\C8H12O1\IFUNES\07-Feb-2017\0\\#p opt=nomicro oni
 om(B3LYP/6-31G*:external="./sictwo_files/sictwo_g09d01") geom=connecti
 vity nosymm scf(maxcyc=100)\\ONIOM(QM:MM) OPT FREQ with SICTWO V1.0\\0
 ,1\C,-1.9480667691,0.2737113947,0.4822961041\C,-0.591991849,0.17400879
 1,0.4817699727\C,-0.0976045668,1.5181342545,0.4828822764\C,-1.19097924
 57,2.3418202241,0.4832002384\H,-2.7517299664,-0.4467295572,0.482082139
 5\H,-0.010044498,-0.7368669098,0.4810073924\H,0.9412319295,1.819379155
 8,0.4830765896\O,-2.3296936124,1.5785243024,0.4833023039\C,-1.38670349
 99,3.8381265016,0.4838603108\C,-0.0325338437,4.5703318513,0.4856231486
 \H,0.5632568049,4.3149516083,-0.3987137191\H,-0.1711843392,5.657706449
 1,0.4863097861\H,0.5616776008,4.3135974234,1.3706302991\C,-2.172202627
 9,4.2533897114,1.7401534048\H,-2.3149833369,5.3394017139,1.7768196002\
 H,-3.1651987348,3.7895337934,1.7672876818\H,-1.646533489,3.9537702506,
 2.6545733518\C,-2.1697521235,4.2548229768,-0.7734892416\H,-2.312763730
 6,5.3408401039,-0.8090011306\H,-1.6421242311,3.9565905781,-1.687234609
 9\H,-3.1625552412,3.7907078126,-0.8032725692\\Version=EM64L-G09RevD.01
 \HF=0.0138401\RMSD=5.696e-09\RMSF=2.060e-05\Dipole=0.2068936,0.0839573
 ,-0.000182\PG=C01 [X(C8H12O1)]\\@


 THE PROGRESS OF RIVERS TO THE SEA IS NOT AS RAPID
 AS THAT OF MAN TO ERROR.
                                              -- VOLTAIRE
 Job cpu time:       0 days  0 hours  7 minutes 59.8 seconds.
 File lengths (MBytes):  RWF=      7 Int=      0 D2E=      0 Chk=      3 Scr=      1
 Normal termination of Gaussian 09 at Tue Feb  7 16:46:00 2017.
