 Entering Gaussian System, Link 0=g09
 Initial command:
 /mnt/data/applications/G09/g09/l1.exe "/scratch/Gau-6105.inp" -scrdir="/scratch/"
 Entering Link 1 = /mnt/data/applications/G09/g09/l1.exe PID=      6106.
  
 Copyright (c) 1988,1990,1992,1993,1995,1998,2003,2009,2013,
            Gaussian, Inc.  All Rights Reserved.
  
 This is part of the Gaussian(R) 09 program.  It is based on
 the Gaussian(R) 03 system (copyright 2003, Gaussian, Inc.),
 the Gaussian(R) 98 system (copyright 1998, Gaussian, Inc.),
 the Gaussian(R) 94 system (copyright 1995, Gaussian, Inc.),
 the Gaussian 92(TM) system (copyright 1992, Gaussian, Inc.),
 the Gaussian 90(TM) system (copyright 1990, Gaussian, Inc.),
 the Gaussian 88(TM) system (copyright 1988, Gaussian, Inc.),
 the Gaussian 86(TM) system (copyright 1986, Carnegie Mellon
 University), and the Gaussian 82(TM) system (copyright 1983,
 Carnegie Mellon University). Gaussian is a federally registered
 trademark of Gaussian, Inc.
  
 This software contains proprietary and confidential information,
 including trade secrets, belonging to Gaussian, Inc.
  
 This software is provided under written license and may be
 used, copied, transmitted, or stored only in accord with that
 written license.
  
 The following legend is applicable only to US Government
 contracts under FAR:
  
                    RESTRICTED RIGHTS LEGEND
  
 Use, reproduction and disclosure by the US Government is
 subject to restrictions as set forth in subparagraphs (a)
 and (c) of the Commercial Computer Software - Restricted
 Rights clause in FAR 52.227-19.
  
 Gaussian, Inc.
 340 Quinnipiac St., Bldg. 40, Wallingford CT 06492
  
  
 ---------------------------------------------------------------
 Warning -- This program may not be used in any manner that
 competes with the business of Gaussian, Inc. or will provide
 assistance to any competitor of Gaussian, Inc.  The licensee
 of this program is prohibited from giving any competitor of
 Gaussian, Inc. access to this program.  By using this program,
 the user acknowledges that Gaussian, Inc. is engaged in the
 business of creating and licensing software in the field of
 computational chemistry and represents and warrants to the
 licensee that it is not a competitor of Gaussian, Inc. and that
 it will not use this program in any manner prohibited above.
 ---------------------------------------------------------------
  

 Cite this work as:
 Gaussian 09, Revision D.01,
 M. J. Frisch, G. W. Trucks, H. B. Schlegel, G. E. Scuseria, 
 M. A. Robb, J. R. Cheeseman, G. Scalmani, V. Barone, B. Mennucci, 
 G. A. Petersson, H. Nakatsuji, M. Caricato, X. Li, H. P. Hratchian, 
 A. F. Izmaylov, J. Bloino, G. Zheng, J. L. Sonnenberg, M. Hada, 
 M. Ehara, K. Toyota, R. Fukuda, J. Hasegawa, M. Ishida, T. Nakajima, 
 Y. Honda, O. Kitao, H. Nakai, T. Vreven, J. A. Montgomery, Jr., 
 J. E. Peralta, F. Ogliaro, M. Bearpark, J. J. Heyd, E. Brothers, 
 K. N. Kudin, V. N. Staroverov, T. Keith, R. Kobayashi, J. Normand, 
 K. Raghavachari, A. Rendell, J. C. Burant, S. S. Iyengar, J. Tomasi, 
 M. Cossi, N. Rega, J. M. Millam, M. Klene, J. E. Knox, J. B. Cross, 
 V. Bakken, C. Adamo, J. Jaramillo, R. Gomperts, R. E. Stratmann, 
 O. Yazyev, A. J. Austin, R. Cammi, C. Pomelli, J. W. Ochterski, 
 R. L. Martin, K. Morokuma, V. G. Zakrzewski, G. A. Voth, 
 P. Salvador, J. J. Dannenberg, S. Dapprich, A. D. Daniels, 
 O. Farkas, J. B. Foresman, J. V. Ortiz, J. Cioslowski, 
 and D. J. Fox, Gaussian, Inc., Wallingford CT, 2013.
 
 ******************************************
 Gaussian 09:  EM64L-G09RevD.01 24-Apr-2013
                 7-Feb-2017 
 ******************************************
 %nprocshared=8
 Will use up to    8 processors via shared memory.
 %mem=8000MB
 %chk=I_3
 ----------------------------------------------------------------------
 #p opt=nomicro oniom(B3LYP/6-31G*:external="./sictwo_files/sictwo_g09d
 01") geom=connectivity nosymm scf(maxcyc=100)
 ----------------------------------------------------------------------
 1/14=-1,18=20,19=15,26=1,38=1,52=2,57=2/1,3;
 2/9=110,12=2,15=1,17=6,18=5,40=1/2;
 1/14=-1,18=20,19=15,26=1,38=1,52=2,53=3172/20;
 3/11=9,16=1,25=1,30=1,41=9900000,43=2,71=1/1;
 4/20=17,22=1,23=100,24=3,113=1,114=1/2;
 6/7=2,8=2,9=2,10=2/1;
 7/7=1,30=1,33=-1,44=-1/16;
 1/14=-1,18=20,19=15,26=1,52=2,53=2032/20;
 3/5=1,6=6,7=1,11=2,16=1,25=1,30=1,71=1,74=-5/1,2,3;
 4//1;
 5/5=2,7=100,38=5/2;
 6/7=2,8=2,9=2,10=2,28=1/1;
 7/7=1,30=1,33=-1/1,2,3,16;
 1/14=-1,18=20,19=15,26=1,52=2,53=1022/20;
 3/11=9,16=1,25=1,30=1,41=9900000,43=2,71=1/1;
 4/20=17,22=1,23=100,24=3,113=1,114=2/2;
 6/7=2,8=2,9=2,10=2/1;
 7/7=1,30=1,33=-1,44=-1/16;
 1/14=-1,18=20,19=15,26=1,52=2,53=3015/20;
 7/9=1,44=-1/16;
 1/14=-1,18=20,19=15,26=1,52=2/3(2);
 2/9=110,15=1/2;
 99//99;
 2/9=110,15=1/2;
 1/14=-1,18=20,19=15,26=1,52=2,53=3173/20;
 3/11=9,16=1,25=1,30=1,41=9900000,43=2,71=1/1;
 4/16=2,20=17,22=1,23=100,24=3,113=1,114=1/2;
 7/7=1,30=1,33=-1,44=-1/16;
 1/14=-1,18=20,19=15,26=1,52=2,53=2033/20;
 3/5=1,6=6,7=1,11=2,16=1,25=1,30=1,71=1,74=-5/1,2,3;
 4/5=5,16=3,69=1/1;
 5/5=2,7=100,38=5/2;
 7/7=1,30=1,33=-1/1,2,3,16;
 1/14=-1,18=20,19=15,26=1,52=2,53=1023/20;
 3/11=9,16=1,25=1,30=1,41=9900000,43=2,71=1/1;
 4/16=2,20=17,22=1,23=100,24=3,113=1,114=2/2;
 7/7=1,30=1,33=-1,44=-1/16;
 1/14=-1,18=20,19=15,26=1,52=2,53=3015/20;
 7/9=1,44=-1/16;
 1/14=-1,18=20,19=15,26=1,52=2/3(-16);
 2/9=110,15=1/2;
 99//99;
 Leave Link    1 at Tue Feb  7 16:47:47 2017, MaxMem=  1048576000 cpu:         0.6
 (Enter /mnt/data/applications/G09/g09/l101.exe)
 --------------------------------------
 ONIOM(QM:MM) OPT FREQ with SICTWO V1.0
 --------------------------------------
 Symbolic Z-matrix:
 Charge =  0 Multiplicity = 1 for low   level calculation on real  system.
 Charge =  0 Multiplicity = 1 for high  level calculation on model system.
 Charge =  0 Multiplicity = 1 for low   level calculation on model system.
 C-C_2                0    -2.36842   0.38462   0.       H 
 C-C_3                0    -3.90842   0.38462   0.       H 
 H-H_                 0    -4.26509   0.88902  -0.87365  H 
 H-H_                 0    -4.26509  -0.62419   0.       H 
 H-H_                 0    -4.26509   0.88902   0.87365  H 
 C-C_3                0    -1.60106  -0.93573  -0.19863  H 
 H-H_                 0    -1.80801  -1.59492   0.61841  H 
 H-H_                 0    -1.91129  -1.39428  -1.11426  H 
 C-C_3                0    -0.08937  -0.64736  -0.25533  L    H-H_     6     0.        0. 
 C-C_3                0     0.67586  -1.96331  -0.48837  L 
 H-H_                 0     0.36701  -2.39585  -1.41704  L 
 H-H_                 0     1.72669  -1.7641   -0.51968  L 
 H-H_                 0     0.46557  -2.64432   0.3097   L 
 N-N_2                0    -1.72384   1.49371   0.16685  H 
 C-C_3                0    -1.98204   2.92475   0.38212  H 
 H-H_                 0    -2.55823   3.30981  -0.43313  H 
 H-H_                 0    -2.52407   3.05596   1.2953   H 
 H-H_                 0    -1.05176   3.45013   0.4409   H 
 H-H_                 0     0.22537  -0.21071   0.66942  L 
 H-H_                 0     0.11454   0.03067  -1.05758  L 
 
 NAtoms=     20 NQM=       20 NQMF=       0 NMMI=      0 NMMIF=      0
                NMic=       0 NMicF=      0.
                    Isotopes and Nuclear Properties:
 (Nuclear quadrupole moments (NQMom) in fm**2, nuclear magnetic moments (NMagM)
  in nuclear magnetons)

  Atom         1           2           3           4           5           6           7           8           9          10
 IAtWgt=          12          12           1           1           1          12           1           1          12          12
 AtmWgt=  12.0000000  12.0000000   1.0078250   1.0078250   1.0078250  12.0000000   1.0078250   1.0078250  12.0000000  12.0000000
 NucSpn=           0           0           1           1           1           0           1           1           0           0
 AtZEff=   0.0000000   0.0000000   0.0000000   0.0000000   0.0000000   0.0000000   0.0000000   0.0000000   0.0000000   0.0000000
 NQMom=    0.0000000   0.0000000   0.0000000   0.0000000   0.0000000   0.0000000   0.0000000   0.0000000   0.0000000   0.0000000
 NMagM=    0.0000000   0.0000000   2.7928460   2.7928460   2.7928460   0.0000000   2.7928460   2.7928460   0.0000000   0.0000000
 AtZNuc=   6.0000000   6.0000000   1.0000000   1.0000000   1.0000000   6.0000000   1.0000000   1.0000000   6.0000000   6.0000000

  Atom        11          12          13          14          15          16          17          18          19          20
 IAtWgt=           1           1           1          14          12           1           1           1           1           1
 AtmWgt=   1.0078250   1.0078250   1.0078250  14.0030740  12.0000000   1.0078250   1.0078250   1.0078250   1.0078250   1.0078250
 NucSpn=           1           1           1           2           0           1           1           1           1           1
 AtZEff=   0.0000000   0.0000000   0.0000000   0.0000000   0.0000000   0.0000000   0.0000000   0.0000000   0.0000000   0.0000000
 NQMom=    0.0000000   0.0000000   0.0000000   2.0440000   0.0000000   0.0000000   0.0000000   0.0000000   0.0000000   0.0000000
 NMagM=    2.7928460   2.7928460   2.7928460   0.4037610   0.0000000   2.7928460   2.7928460   2.7928460   2.7928460   2.7928460
 AtZNuc=   1.0000000   1.0000000   1.0000000   7.0000000   6.0000000   1.0000000   1.0000000   1.0000000   1.0000000   1.0000000
 Leave Link  101 at Tue Feb  7 16:47:47 2017, MaxMem=  1048576000 cpu:         3.3
 (Enter /mnt/data/applications/G09/g09/l103.exe)

 GradGradGradGradGradGradGradGradGradGradGradGradGradGradGradGradGradGrad
 Berny optimization.
 Initialization pass.
                           ----------------------------
                           !    Initial Parameters    !
                           ! (Angstroms and Degrees)  !
 --------------------------                            --------------------------
 ! Name  Definition              Value          Derivative Info.                !
 --------------------------------------------------------------------------------
 ! R1    R(1,2)                  1.54           estimate D2E/DX2                !
 ! R2    R(1,6)                  1.54           estimate D2E/DX2                !
 ! R3    R(1,14)                 1.2936         estimate D2E/DX2                !
 ! R4    R(2,3)                  1.07           estimate D2E/DX2                !
 ! R5    R(2,4)                  1.07           estimate D2E/DX2                !
 ! R6    R(2,5)                  1.07           estimate D2E/DX2                !
 ! R7    R(6,7)                  1.07           estimate D2E/DX2                !
 ! R8    R(6,8)                  1.07           estimate D2E/DX2                !
 ! R9    R(6,9)                  1.54           estimate D2E/DX2                !
 ! R10   R(9,10)                 1.54           estimate D2E/DX2                !
 ! R11   R(9,19)                 1.07           estimate D2E/DX2                !
 ! R12   R(9,20)                 1.07           estimate D2E/DX2                !
 ! R13   R(10,11)                1.07           estimate D2E/DX2                !
 ! R14   R(10,12)                1.07           estimate D2E/DX2                !
 ! R15   R(10,13)                1.07           estimate D2E/DX2                !
 ! R16   R(14,15)                1.47           estimate D2E/DX2                !
 ! R17   R(15,16)                1.07           estimate D2E/DX2                !
 ! R18   R(15,17)                1.07           estimate D2E/DX2                !
 ! R19   R(15,18)                1.07           estimate D2E/DX2                !
 ! A1    A(2,1,6)              119.8865         estimate D2E/DX2                !
 ! A2    A(2,1,14)             119.8865         estimate D2E/DX2                !
 ! A3    A(6,1,14)             120.2269         estimate D2E/DX2                !
 ! A4    A(1,2,3)              109.4712         estimate D2E/DX2                !
 ! A5    A(1,2,4)              109.4712         estimate D2E/DX2                !
 ! A6    A(1,2,5)              109.4712         estimate D2E/DX2                !
 ! A7    A(3,2,4)              109.4713         estimate D2E/DX2                !
 ! A8    A(3,2,5)              109.4712         estimate D2E/DX2                !
 ! A9    A(4,2,5)              109.4712         estimate D2E/DX2                !
 ! A10   A(1,6,7)              109.4712         estimate D2E/DX2                !
 ! A11   A(1,6,8)              109.4712         estimate D2E/DX2                !
 ! A12   A(1,6,9)              109.4712         estimate D2E/DX2                !
 ! A13   A(7,6,8)              109.4713         estimate D2E/DX2                !
 ! A14   A(7,6,9)              109.4712         estimate D2E/DX2                !
 ! A15   A(8,6,9)              109.4712         estimate D2E/DX2                !
 ! A16   A(6,9,10)             109.4712         estimate D2E/DX2                !
 ! A17   A(6,9,19)             109.4712         estimate D2E/DX2                !
 ! A18   A(6,9,20)             109.4712         estimate D2E/DX2                !
 ! A19   A(10,9,19)            109.4712         estimate D2E/DX2                !
 ! A20   A(10,9,20)            109.4713         estimate D2E/DX2                !
 ! A21   A(19,9,20)            109.4712         estimate D2E/DX2                !
 ! A22   A(9,10,11)            109.4712         estimate D2E/DX2                !
 ! A23   A(9,10,12)            109.4712         estimate D2E/DX2                !
 ! A24   A(9,10,13)            109.4712         estimate D2E/DX2                !
 ! A25   A(11,10,12)           109.4713         estimate D2E/DX2                !
 ! A26   A(11,10,13)           109.4712         estimate D2E/DX2                !
 ! A27   A(12,10,13)           109.4712         estimate D2E/DX2                !
 ! A28   A(1,14,15)            139.9974         estimate D2E/DX2                !
 ! A29   A(14,15,16)           109.4712         estimate D2E/DX2                !
 ! A30   A(14,15,17)           109.4712         estimate D2E/DX2                !
 ! A31   A(14,15,18)           109.4712         estimate D2E/DX2                !
 ! A32   A(16,15,17)           109.4713         estimate D2E/DX2                !
 ! A33   A(16,15,18)           109.4712         estimate D2E/DX2                !
 ! A34   A(17,15,18)           109.4712         estimate D2E/DX2                !
 ! D1    D(6,1,2,3)           -111.4449         estimate D2E/DX2                !
 ! D2    D(6,1,2,4)              8.5551         estimate D2E/DX2                !
 ! D3    D(6,1,2,5)            128.5551         estimate D2E/DX2                !
 ! D4    D(14,1,2,3)            68.5551         estimate D2E/DX2                !
 ! D5    D(14,1,2,4)          -171.4449         estimate D2E/DX2                !
 ! D6    D(14,1,2,5)           -51.4449         estimate D2E/DX2                !
 ! D7    D(2,1,6,7)            -63.9088         estimate D2E/DX2                !
 ! D8    D(2,1,6,8)             56.0912         estimate D2E/DX2                !
 ! D9    D(2,1,6,9)            176.0912         estimate D2E/DX2                !
 ! D10   D(14,1,6,7)           116.0912         estimate D2E/DX2                !
 ! D11   D(14,1,6,8)          -123.9088         estimate D2E/DX2                !
 ! D12   D(14,1,6,9)            -3.9088         estimate D2E/DX2                !
 ! D13   D(2,1,14,15)            0.0            estimate D2E/DX2                !
 ! D14   D(6,1,14,15)          180.0            estimate D2E/DX2                !
 ! D15   D(1,6,9,10)          -178.6284         estimate D2E/DX2                !
 ! D16   D(1,6,9,19)            61.3716         estimate D2E/DX2                !
 ! D17   D(1,6,9,20)           -58.6284         estimate D2E/DX2                !
 ! D18   D(7,6,9,10)            61.3716         estimate D2E/DX2                !
 ! D19   D(7,6,9,19)           -58.6284         estimate D2E/DX2                !
 ! D20   D(7,6,9,20)          -178.6284         estimate D2E/DX2                !
 ! D21   D(8,6,9,10)           -58.6285         estimate D2E/DX2                !
 ! D22   D(8,6,9,19)          -178.6284         estimate D2E/DX2                !
 ! D23   D(8,6,9,20)            61.3716         estimate D2E/DX2                !
 ! D24   D(6,9,10,11)           60.4648         estimate D2E/DX2                !
 ! D25   D(6,9,10,12)         -179.5352         estimate D2E/DX2                !
 ! D26   D(6,9,10,13)          -59.5352         estimate D2E/DX2                !
 ! D27   D(19,9,10,11)        -179.5352         estimate D2E/DX2                !
 ! D28   D(19,9,10,12)         -59.5352         estimate D2E/DX2                !
 ! D29   D(19,9,10,13)          60.4648         estimate D2E/DX2                !
 ! D30   D(20,9,10,11)         -59.5352         estimate D2E/DX2                !
 ! D31   D(20,9,10,12)          60.4648         estimate D2E/DX2                !
 ! D32   D(20,9,10,13)        -179.5352         estimate D2E/DX2                !
 ! D33   D(1,14,15,16)         -58.8621         estimate D2E/DX2                !
 ! D34   D(1,14,15,17)          61.1379         estimate D2E/DX2                !
 ! D35   D(1,14,15,18)        -178.8621         estimate D2E/DX2                !
 --------------------------------------------------------------------------------
 Trust Radius=3.00D-01 FncErr=1.00D-07 GrdErr=1.00D-07
 Number of steps in this run=     98 maximum allowed number of steps=    120.
 GradGradGradGradGradGradGradGradGradGradGradGradGradGradGradGradGradGrad

 Leave Link  103 at Tue Feb  7 16:47:48 2017, MaxMem=  1048576000 cpu:         0.1
 (Enter /mnt/data/applications/G09/g09/l202.exe)
                          Input orientation:                          
 ---------------------------------------------------------------------
 Center     Atomic      Atomic             Coordinates (Angstroms)
 Number     Number       Type             X           Y           Z
 ---------------------------------------------------------------------
      1          6    10061002       -2.368421    0.384615    0.000000
      2          6    10061003       -3.908421    0.384615    0.000000
      3          1    10011000       -4.265087    0.889018   -0.873651
      4          1    10011000       -4.265087   -0.624190    0.000000
      5          1    10011000       -4.265088    0.889018    0.873651
      6          6    10061003       -1.601064   -0.935730   -0.198625
      7          1    10011000       -1.808014   -1.594917    0.618408
      8          1    10011000       -1.911285   -1.394283   -1.114263
      9          6    10061003       -0.089366   -0.647364   -0.255334
     10          6    10061003        0.675861   -1.963313   -0.488370
     11          1    10011000        0.367010   -2.395848   -1.417039
     12          1    10011000        1.726686   -1.764103   -0.519683
     13          1    10011000        0.465569   -2.644317    0.309697
     14          7    10071002       -1.723841    1.493705    0.166845
     15          6    10061003       -1.982036    2.924750    0.382123
     16          1    10011000       -2.558226    3.309809   -0.433128
     17          1    10011000       -2.524066    3.055958    1.295299
     18          1    10011000       -1.051756    3.450130    0.440899
     19          1    10011000        0.225375   -0.210711    0.669421
     20          1    10011000        0.114544    0.030668   -1.057576
 ---------------------------------------------------------------------
                    Distance matrix (angstroms):
                    1          2          3          4          5
     1  C    0.000000
     2  C    1.540000   0.000000
     3  H    2.148263   1.070000   0.000000
     4  H    2.148263   1.070000   1.747303   0.000000
     5  H    2.148263   1.070000   1.747303   1.747303   0.000000
     6  C    1.540000   2.665832   3.298846   2.689522   3.402426
     7  H    2.148263   2.951726   3.799129   2.713291   3.503183
     8  H    2.148263   2.897346   3.288121   2.715697   3.834795
     9  C    2.514810   3.964260   4.492152   4.183584   4.590395
    10  C    3.875426   5.173675   5.718147   5.142443   5.865481
    11  H    4.149887   5.293230   5.704555   5.157819   6.123229
    12  H    4.653704   6.053222   6.562446   6.121342   6.699387
    13  H    4.159548   5.329365   6.021950   5.153245   5.931409
    14  N    1.293600   2.455668   2.811799   3.312288   2.706133
    15  C    2.597614   3.210804   3.306584   4.237136   3.098085
    16  H    2.963171   3.250751   2.994606   4.310142   3.237480
    17  H    2.972893   3.275715   3.525780   4.272288   2.811507
    18  H    3.365320   4.213349   4.314259   5.207684   4.131836
    19  H    2.744142   4.229752   4.873882   4.558875   4.627674
    20  H    2.721922   4.174685   4.466740   4.552854   4.862878
                    6          7          8          9         10
     6  C    0.000000
     7  H    1.070000   0.000000
     8  H    1.070000   1.747303   0.000000
     9  C    1.540000   2.148263   2.148263   0.000000
    10  C    2.514809   2.744141   2.721922   1.540000   0.000000
    11  H    2.736749   3.084683   2.507077   2.148263   1.070000
    12  H    3.444300   3.717255   3.704744   2.148263   1.070000
    13  H    2.729218   2.523039   3.039684   2.148263   1.070000
    14  N    2.459837   3.122592   3.164940   2.726522   4.258973
    15  C    3.922463   4.529184   4.571457   4.092500   5.631638
    16  H    4.358411   5.071970   4.796973   4.667558   6.186128
    17  H    4.360884   4.754108   5.097659   4.695404   6.214023
    18  H    4.466150   5.104501   5.160005   4.266191   5.757913
    19  H    2.148263   2.460345   3.024514   1.070000   2.148263
    20  H    2.148263   3.024514   2.477434   1.070000   2.148263
                   11         12         13         14         15
    11  H    0.000000
    12  H    1.747303   0.000000
    13  H    1.747303   1.747303   0.000000
    14  N    4.691372   4.794869   4.683711   0.000000
    15  C    6.088002   6.045926   6.083628   1.470000   0.000000
    16  H    6.486879   6.641727   6.719132   2.086720   1.070000
    17  H    6.740718   6.678026   6.511717   2.086720   1.070000
    18  H    6.296053   5.985873   6.281860   2.086720   1.070000
    19  H    3.024599   2.465955   2.471747   2.637623   3.845298
    20  H    2.465955   2.471747   3.024599   2.649404   3.852803
                   16         17         18         19         20
    16  H    0.000000
    17  H    1.747303   0.000000
    18  H    1.747303   1.747303   0.000000
    19  H    4.621483   4.315352   3.883946   0.000000
    20  H    4.276259   4.653026   3.911317   1.747303   0.000000
 Symmetry turned off by external request.
 Stoichiometry    C6H13N
 Framework group  C1[X(C6H13N)]
 Deg. of freedom    54
 Full point group                 C1      NOp   1
 Rotational constants (GHZ):      4.2847890      1.3833792      1.0804127
 Leave Link  202 at Tue Feb  7 16:47:48 2017, MaxMem=  1048576000 cpu:         0.0
 (Enter /mnt/data/applications/G09/g09/l120.exe)
 ONIOM: Cut between C /H     9 and C     6 factor= 0.723886 0.723886
 ONIOM: saving gridpoint 17
 ONIOM: generating point  3 -- low level on real system.
 Leave Link  120 at Tue Feb  7 16:47:48 2017, MaxMem=  1048576000 cpu:         0.0
 (Enter /mnt/data/applications/G09/g09/l301.exe)
 Standard basis: STO-3G (5D, 7F)
 Ernie: Thresh=  0.10000D-02 Tol=  0.10000D-05 Strict=F.
    48 basis functions,   144 primitive gaussians,    48 cartesian basis functions
    28 alpha electrons       28 beta electrons
       nuclear repulsion energy       304.6705622677 Hartrees.
 IExCor=    0 DFT=F Ex=HF Corr=None ExCW=0 ScaHFX=  1.000000
 ScaDFX=  1.000000  1.000000  1.000000  1.000000 ScalE2=  1.000000  1.000000
 IRadAn=      0 IRanWt=     -1 IRanGd=            0 ICorTp=0 IEmpDi=  4
 NAtoms=   20 NActive=   20 NUniq=   20 SFac= 1.00D+00 NAtFMM=   60 NAOKFM=F Big=F
 Integral buffers will be    131072 words long.
 Raffenetti 1 integral format.
 Two-electron integral symmetry is turned off.
 Leave Link  301 at Tue Feb  7 16:47:48 2017, MaxMem=  1048576000 cpu:         0.5
 (Enter /mnt/data/applications/G09/g09/l402.exe)
 External calculation of energy and first derivatives.
 Running external command "./sictwo_files/sictwo_g09d01 R"
         input file       "/scratch/Gau-6106.EIn"
         output file      "/scratch/Gau-6106.EOu"
         message file     "/scratch/Gau-6106.EMs"
         fchk file        "/scratch/Gau-6106.EFC"
         mat. el file     "/scratch/Gau-6106.EUF"

---------------------------- SICTWO Version 1.0 STARTED -----------------------------

MM calculations started
MM calculations finished ....
Information recovery

---------------------------- SICTWO Version 1.0 FINISHED -----------------------------

 Recovered energy= 0.457788978467E-01 dipole=     -0.757353410275     -0.430019364899     -0.064522576252
 Energy=    4.577889785E-02 NIter=   0.
 Dipole moment=      -0.757353      -0.430019      -0.064523
 Leave Link  402 at Tue Feb  7 16:47:51 2017, MaxMem=  1048576000 cpu:        24.3
 (Enter /mnt/data/applications/G09/g09/l601.exe)
 Leave Link  601 at Tue Feb  7 16:47:51 2017, MaxMem=  1048576000 cpu:         0.2
 (Enter /mnt/data/applications/G09/g09/l716.exe)
 Dipole        =-7.57353410D-01-4.30019365D-01-6.45225763D-02
 Cartesian Forces:  Max     0.045409857 RMS     0.014096711
 Leave Link  716 at Tue Feb  7 16:47:52 2017, MaxMem=  1048576000 cpu:         0.2
 (Enter /mnt/data/applications/G09/g09/l120.exe)
 SvSCFP did not find density file   528.
 ONIOM: saving gridpoint  3
 ONIOM: restoring gridpoint 17
 ONIOM: generating point  2 -- high level on model system.
 Leave Link  120 at Tue Feb  7 16:47:52 2017, MaxMem=  1048576000 cpu:         0.0
 (Enter /mnt/data/applications/G09/g09/l301.exe)
 Standard basis: 6-31G(d) (6D, 7F)
 Ernie: Thresh=  0.10000D-02 Tol=  0.10000D-05 Strict=F.
    93 basis functions,   176 primitive gaussians,    93 cartesian basis functions
    20 alpha electrons       20 beta electrons
       nuclear repulsion energy       174.1253855048 Hartrees.
 IExCor=  402 DFT=T Ex+Corr=B3LYP ExCW=0 ScaHFX=  0.200000
 ScaDFX=  0.800000  0.720000  1.000000  0.810000 ScalE2=  1.000000  1.000000
 IRadAn=      0 IRanWt=     -1 IRanGd=            0 ICorTp=0 IEmpDi=  4
 NAtoms=   20 NActive=   14 NUniq=   14 SFac= 1.00D+00 NAtFMM=   60 NAOKFM=F Big=F
 Integral buffers will be    131072 words long.
 Raffenetti 2 integral format.
 Two-electron integral symmetry is turned off.
 Leave Link  301 at Tue Feb  7 16:47:52 2017, MaxMem=  1048576000 cpu:         0.4
 (Enter /mnt/data/applications/G09/g09/l302.exe)
 NPDir=0 NMtPBC=     1 NCelOv=     1 NCel=       1 NClECP=     1 NCelD=      1
         NCelK=      1 NCelE2=     1 NClLst=     1 CellRange=     0.0.
 One-electron integrals computed using PRISM.
 NBasis=    93 RedAO= T EigKep=  3.94D-03  NBF=    93
 NBsUse=    93 1.00D-06 EigRej= -1.00D+00 NBFU=    93
 Precomputing XC quadrature grid using
 IXCGrd= 4 IRadAn=           0 IRanWt=          -1 IRanGd=           0 AccXCQ= 0.00D+00.
 Generated NRdTot=       0 NPtTot=           0 NUsed=           0 NTot=          32
 NSgBfM=    93    93    93    93    93 MxSgAt=    14 MxSgA2=    14.
 Leave Link  302 at Tue Feb  7 16:47:52 2017, MaxMem=  1048576000 cpu:         1.5
 (Enter /mnt/data/applications/G09/g09/l303.exe)
 DipDrv:  MaxL=1.
 Leave Link  303 at Tue Feb  7 16:47:52 2017, MaxMem=  1048576000 cpu:         0.3
 (Enter /mnt/data/applications/G09/g09/l401.exe)
 ExpMin= 1.61D-01 ExpMax= 4.17D+03 ExpMxC= 6.27D+02 IAcc=1 IRadAn=         1 AccDes= 0.00D+00
 Harris functional with IExCor=  402 and IRadAn=       1 diagonalized for initial guess.
 HarFok:  IExCor=  402 AccDes= 0.00D+00 IRadAn=         1 IDoV= 1 UseB2=F ITyADJ=14
 ICtDFT=  3500011 ScaDFX=  1.000000  1.000000  1.000000  1.000000
 FoFCou: FMM=F IPFlag=           0 FMFlag=      100000 FMFlg1=           0
         NFxFlg=           0 DoJE=T BraDBF=F KetDBF=T FulRan=T
         wScrn=  0.000000 ICntrl=     500 IOpCl=  0 I1Cent=   200000004 NGrid=           0
         NMat0=    1 NMatS0=      1 NMatT0=    0 NMatD0=    1 NMtDS0=    0 NMtDT0=    0
 Symmetry not used in FoFCou.
 Harris En= -212.616254200406    
 JPrj=0 DoOrth=F DoCkMO=F.
 Leave Link  401 at Tue Feb  7 16:47:52 2017, MaxMem=  1048576000 cpu:         1.7
 (Enter /mnt/data/applications/G09/g09/l502.exe)
 Closed shell SCF:
 Using DIIS extrapolation, IDIIS=  1040.
 Two-electron integral symmetry not used.
 Keep R1 ints in memory in canonical form, NReq=10509869.
 IVT=       39315 IEndB=       39315 NGot=  1048576000 MDV=  1038981680
 LenX=  1038981680 LenY=  1038972590
 Requested convergence on RMS density matrix=1.00D-08 within 100 cycles.
 Requested convergence on MAX density matrix=1.00D-06.
 Requested convergence on             energy=1.00D-06.
 No special actions if energy rises.
 FoFCou: FMM=F IPFlag=           0 FMFlag=           0 FMFlg1=           0
         NFxFlg=           0 DoJE=F BraDBF=F KetDBF=F FulRan=T
         wScrn=  0.000000 ICntrl=     600 IOpCl=  0 I1Cent=           0 NGrid=           0
         NMat0=    1 NMatS0=   4371 NMatT0=    0 NMatD0=    1 NMtDS0=    0 NMtDT0=    0
 Symmetry not used in FoFCou.
 Integral accuracy reduced to 1.0D-05 until final iterations.

 Cycle   1  Pass 0  IDiag  1:
 E= -212.368487241767    
 DIIS: error= 5.72D-02 at cycle   1 NSaved=   1.
 NSaved= 1 IEnMin= 1 EnMin= -212.368487241767     IErMin= 1 ErrMin= 5.72D-02
 ErrMax= 5.72D-02  0.00D+00 EMaxC= 1.00D-01 BMatC= 1.81D-01 BMatP= 1.81D-01
 IDIUse=3 WtCom= 4.28D-01 WtEn= 5.72D-01
 Coeff-Com:  0.100D+01
 Coeff-En:   0.100D+01
 Coeff:      0.100D+01
 Gap=     0.158 Goal=   None    Shift=    0.000
 GapD=    0.158 DampG=1.000 DampE=0.500 DampFc=0.5000 IDamp=-1.
 Damping current iteration by 5.00D-01
 RMSDP=1.04D-02 MaxDP=1.36D-01              OVMax= 1.91D-01

 Cycle   2  Pass 0  IDiag  1:
 E= -212.456429819704     Delta-E=       -0.087942577937 Rises=F Damp=T
 DIIS: error= 8.53D-03 at cycle   2 NSaved=   2.
 NSaved= 2 IEnMin= 2 EnMin= -212.456429819704     IErMin= 2 ErrMin= 8.53D-03
 ErrMax= 8.53D-03  0.00D+00 EMaxC= 1.00D-01 BMatC= 9.26D-03 BMatP= 1.81D-01
 IDIUse=3 WtCom= 9.15D-01 WtEn= 8.53D-02
 Coeff-Com:  0.600D-01 0.940D+00
 Coeff-En:   0.787D-01 0.921D+00
 Coeff:      0.616D-01 0.938D+00
 Gap=     0.215 Goal=   None    Shift=    0.000
 RMSDP=2.26D-03 MaxDP=4.03D-02 DE=-8.79D-02 OVMax= 1.62D-01

 Cycle   3  Pass 0  IDiag  1:
 E= -212.548240544525     Delta-E=       -0.091810724821 Rises=F Damp=F
 DIIS: error= 1.04D-02 at cycle   3 NSaved=   3.
 NSaved= 3 IEnMin= 3 EnMin= -212.548240544525     IErMin= 2 ErrMin= 8.53D-03
 ErrMax= 1.04D-02  0.00D+00 EMaxC= 1.00D-01 BMatC= 1.25D-02 BMatP= 9.26D-03
 IDIUse=2 WtCom= 0.00D+00 WtEn= 1.00D+00
 Coeff-En:   0.000D+00 0.000D+00 0.100D+01
 Coeff:      0.000D+00 0.000D+00 0.100D+01
 Gap=     0.176 Goal=   None    Shift=    0.000
 RMSDP=3.33D-03 MaxDP=8.53D-02 DE=-9.18D-02 OVMax= 1.71D-01

 Cycle   4  Pass 0  IDiag  1:
 E= -212.501718589463     Delta-E=        0.046521955062 Rises=F Damp=F
 DIIS: error= 2.63D-02 at cycle   4 NSaved=   4.
 NSaved= 4 IEnMin= 3 EnMin= -212.548240544525     IErMin= 2 ErrMin= 8.53D-03
 ErrMax= 2.63D-02  0.00D+00 EMaxC= 1.00D-01 BMatC= 6.38D-02 BMatP= 9.26D-03
 IDIUse=2 WtCom= 0.00D+00 WtEn= 1.00D+00
 Coeff-En:   0.000D+00 0.000D+00 0.780D+00 0.220D+00
 Coeff:      0.000D+00 0.000D+00 0.780D+00 0.220D+00
 Gap=     0.199 Goal=   None    Shift=    0.000
 RMSDP=1.77D-03 MaxDP=4.16D-02 DE= 4.65D-02 OVMax= 8.61D-02

 Cycle   5  Pass 0  IDiag  1:
 E= -212.555310366779     Delta-E=       -0.053591777316 Rises=F Damp=F
 DIIS: error= 6.80D-03 at cycle   5 NSaved=   5.
 NSaved= 5 IEnMin= 5 EnMin= -212.555310366779     IErMin= 5 ErrMin= 6.80D-03
 ErrMax= 6.80D-03  0.00D+00 EMaxC= 1.00D-01 BMatC= 4.79D-03 BMatP= 9.26D-03
 IDIUse=3 WtCom= 9.32D-01 WtEn= 6.80D-02
 Coeff-Com: -0.189D-02 0.117D-01 0.252D+00-0.131D+00 0.869D+00
 Coeff-En:   0.000D+00 0.000D+00 0.325D+00 0.000D+00 0.675D+00
 Coeff:     -0.176D-02 0.109D-01 0.257D+00-0.122D+00 0.856D+00
 Gap=     0.209 Goal=   None    Shift=    0.000
 RMSDP=6.22D-04 MaxDP=1.66D-02 DE=-5.36D-02 OVMax= 3.20D-02

 Cycle   6  Pass 0  IDiag  1:
 E= -212.559611480257     Delta-E=       -0.004301113478 Rises=F Damp=F
 DIIS: error= 9.65D-05 at cycle   6 NSaved=   6.
 NSaved= 6 IEnMin= 6 EnMin= -212.559611480257     IErMin= 6 ErrMin= 9.65D-05
 ErrMax= 9.65D-05  0.00D+00 EMaxC= 1.00D-01 BMatC= 1.68D-06 BMatP= 4.79D-03
 IDIUse=1 WtCom= 1.00D+00 WtEn= 0.00D+00
 Coeff-Com: -0.545D-03 0.143D-02 0.816D-01-0.444D-01 0.299D+00 0.663D+00
 Coeff:     -0.545D-03 0.143D-02 0.816D-01-0.444D-01 0.299D+00 0.663D+00
 Gap=     0.209 Goal=   None    Shift=    0.000
 RMSDP=1.50D-05 MaxDP=3.63D-04 DE=-4.30D-03 OVMax= 4.47D-04

 Cycle   7  Pass 0  IDiag  1:
 E= -212.559612678580     Delta-E=       -0.000001198323 Rises=F Damp=F
 DIIS: error= 3.93D-05 at cycle   7 NSaved=   7.
 NSaved= 7 IEnMin= 7 EnMin= -212.559612678580     IErMin= 7 ErrMin= 3.93D-05
 ErrMax= 3.93D-05  0.00D+00 EMaxC= 1.00D-01 BMatC= 2.12D-07 BMatP= 1.68D-06
 IDIUse=1 WtCom= 1.00D+00 WtEn= 0.00D+00
 Coeff-Com: -0.369D-04-0.194D-03 0.233D-01-0.122D-01 0.844D-01 0.338D+00
 Coeff-Com:  0.566D+00
 Coeff:     -0.369D-04-0.194D-03 0.233D-01-0.122D-01 0.844D-01 0.338D+00
 Coeff:      0.566D+00
 Gap=     0.209 Goal=   None    Shift=    0.000
 RMSDP=6.55D-06 MaxDP=7.84D-05 DE=-1.20D-06 OVMax= 1.10D-04

 Initial convergence to 1.0D-05 achieved.  Increase integral accuracy.
 Cycle   8  Pass 1  IDiag  1:
 E= -212.559594425570     Delta-E=        0.000018253009 Rises=F Damp=F
 DIIS: error= 8.99D-06 at cycle   1 NSaved=   1.
 NSaved= 1 IEnMin= 1 EnMin= -212.559594425570     IErMin= 1 ErrMin= 8.99D-06
 ErrMax= 8.99D-06  0.00D+00 EMaxC= 1.00D-01 BMatC= 1.74D-08 BMatP= 1.74D-08
 IDIUse=1 WtCom= 1.00D+00 WtEn= 0.00D+00
 Coeff-Com:  0.100D+01
 Coeff:      0.100D+01
 Gap=     0.209 Goal=   None    Shift=    0.000
 RMSDP=6.55D-06 MaxDP=7.84D-05 DE= 1.83D-05 OVMax= 1.04D-04

 Cycle   9  Pass 1  IDiag  1:
 E= -212.559594427598     Delta-E=       -0.000000002028 Rises=F Damp=F
 DIIS: error= 1.42D-05 at cycle   2 NSaved=   2.
 NSaved= 2 IEnMin= 2 EnMin= -212.559594427598     IErMin= 1 ErrMin= 8.99D-06
 ErrMax= 1.42D-05  0.00D+00 EMaxC= 1.00D-01 BMatC= 2.57D-08 BMatP= 1.74D-08
 IDIUse=1 WtCom= 1.00D+00 WtEn= 0.00D+00
 Coeff-Com:  0.563D+00 0.437D+00
 Coeff:      0.563D+00 0.437D+00
 Gap=     0.209 Goal=   None    Shift=    0.000
 RMSDP=1.94D-06 MaxDP=5.45D-05 DE=-2.03D-09 OVMax= 1.05D-04

 Cycle  10  Pass 1  IDiag  1:
 E= -212.559594447125     Delta-E=       -0.000000019527 Rises=F Damp=F
 DIIS: error= 6.60D-06 at cycle   3 NSaved=   3.
 NSaved= 3 IEnMin= 3 EnMin= -212.559594447125     IErMin= 3 ErrMin= 6.60D-06
 ErrMax= 6.60D-06  0.00D+00 EMaxC= 1.00D-01 BMatC= 4.35D-09 BMatP= 1.74D-08
 IDIUse=1 WtCom= 1.00D+00 WtEn= 0.00D+00
 Coeff-Com:  0.109D-01 0.287D+00 0.702D+00
 Coeff:      0.109D-01 0.287D+00 0.702D+00
 Gap=     0.209 Goal=   None    Shift=    0.000
 RMSDP=7.84D-07 MaxDP=1.63D-05 DE=-1.95D-08 OVMax= 3.12D-05

 Cycle  11  Pass 1  IDiag  1:
 E= -212.559594450839     Delta-E=       -0.000000003714 Rises=F Damp=F
 DIIS: error= 1.26D-06 at cycle   4 NSaved=   4.
 NSaved= 4 IEnMin= 4 EnMin= -212.559594450839     IErMin= 4 ErrMin= 1.26D-06
 ErrMax= 1.26D-06  0.00D+00 EMaxC= 1.00D-01 BMatC= 2.26D-10 BMatP= 4.35D-09
 IDIUse=1 WtCom= 1.00D+00 WtEn= 0.00D+00
 Coeff-Com: -0.167D-01 0.135D+00 0.372D+00 0.509D+00
 Coeff:     -0.167D-01 0.135D+00 0.372D+00 0.509D+00
 Gap=     0.209 Goal=   None    Shift=    0.000
 RMSDP=1.89D-07 MaxDP=2.83D-06 DE=-3.71D-09 OVMax= 3.20D-06

 Cycle  12  Pass 1  IDiag  1:
 E= -212.559594451053     Delta-E=       -0.000000000215 Rises=F Damp=F
 DIIS: error= 1.45D-07 at cycle   5 NSaved=   5.
 NSaved= 5 IEnMin= 5 EnMin= -212.559594451053     IErMin= 5 ErrMin= 1.45D-07
 ErrMax= 1.45D-07  0.00D+00 EMaxC= 1.00D-01 BMatC= 4.91D-12 BMatP= 2.26D-10
 IDIUse=1 WtCom= 1.00D+00 WtEn= 0.00D+00
 Coeff-Com: -0.669D-02 0.363D-01 0.100D+00 0.193D+00 0.677D+00
 Coeff:     -0.669D-02 0.363D-01 0.100D+00 0.193D+00 0.677D+00
 Gap=     0.209 Goal=   None    Shift=    0.000
 RMSDP=3.04D-08 MaxDP=5.13D-07 DE=-2.15D-10 OVMax= 6.32D-07

 Cycle  13  Pass 1  IDiag  1:
 E= -212.559594451056     Delta-E=       -0.000000000002 Rises=F Damp=F
 DIIS: error= 5.11D-08 at cycle   6 NSaved=   6.
 NSaved= 6 IEnMin= 6 EnMin= -212.559594451056     IErMin= 6 ErrMin= 5.11D-08
 ErrMax= 5.11D-08  0.00D+00 EMaxC= 1.00D-01 BMatC= 2.03D-13 BMatP= 4.91D-12
 IDIUse=1 WtCom= 1.00D+00 WtEn= 0.00D+00
 Coeff-Com: -0.117D-02 0.497D-02 0.108D-01 0.330D-01 0.186D+00 0.766D+00
 Coeff:     -0.117D-02 0.497D-02 0.108D-01 0.330D-01 0.186D+00 0.766D+00
 Gap=     0.209 Goal=   None    Shift=    0.000
 RMSDP=8.42D-09 MaxDP=9.22D-08 DE=-2.16D-12 OVMax= 1.71D-07

 SCF Done:  E(RB3LYP) =  -212.559594451     A.U. after   13 cycles
            NFock= 13  Conv=0.84D-08     -V/T= 2.0098
 KE= 2.104913847477D+02 PE=-8.405826382979D+02 EE= 2.434062735944D+02
 Leave Link  502 at Tue Feb  7 16:47:55 2017, MaxMem=  1048576000 cpu:        20.2
 (Enter /mnt/data/applications/G09/g09/l601.exe)
 Copying SCF densities to generalized density rwf, IOpCl= 0 IROHF=0.

 **********************************************************************

            Population analysis using the SCF density.

 **********************************************************************

 Alpha  occ. eigenvalues --  -14.29690 -10.23104 -10.19986 -10.17486 -10.17274
 Alpha  occ. eigenvalues --   -0.88137  -0.75455  -0.69739  -0.67441  -0.50958
 Alpha  occ. eigenvalues --   -0.45192  -0.44472  -0.43689  -0.41845  -0.40187
 Alpha  occ. eigenvalues --   -0.40129  -0.37884  -0.35599  -0.26333  -0.19337
 Alpha virt. eigenvalues --    0.01592   0.09701   0.13092   0.15242   0.15385
 Alpha virt. eigenvalues --    0.16241   0.17452   0.18335   0.18840   0.19599
 Alpha virt. eigenvalues --    0.22496   0.23694   0.29050   0.40892   0.46526
 Alpha virt. eigenvalues --    0.50515   0.53794   0.54893   0.57645   0.59248
 Alpha virt. eigenvalues --    0.60522   0.68270   0.70506   0.71235   0.74627
 Alpha virt. eigenvalues --    0.79011   0.82531   0.84052   0.85954   0.88212
 Alpha virt. eigenvalues --    0.91153   0.91840   0.92151   0.93348   0.95094
 Alpha virt. eigenvalues --    0.96684   0.97141   1.01236   1.11781   1.20493
 Alpha virt. eigenvalues --    1.35091   1.38484   1.39751   1.40991   1.52563
 Alpha virt. eigenvalues --    1.59377   1.73015   1.77828   1.81023   1.88499
 Alpha virt. eigenvalues --    1.88984   1.94333   2.02507   2.10352   2.11836
 Alpha virt. eigenvalues --    2.18935   2.19292   2.21188   2.28980   2.29283
 Alpha virt. eigenvalues --    2.34767   2.38535   2.46323   2.48798   2.62673
 Alpha virt. eigenvalues --    2.67213   2.89482   3.10842   3.91674   4.11228
 Alpha virt. eigenvalues --    4.26851   4.32523   4.47323
          Condensed to atoms (all electrons):
               1          2          3          4          5          6
     1  C    4.606981   0.326471  -0.023459  -0.022688  -0.023524   0.347434
     2  C    0.326471   5.287908   0.371158   0.347522   0.373739  -0.104367
     3  H   -0.023459   0.371158   0.537375  -0.028629  -0.026481   0.002578
     4  H   -0.022688   0.347522  -0.028629   0.576338  -0.029018   0.001220
     5  H   -0.023524   0.373739  -0.026481  -0.029018   0.538098   0.003126
     6  C    0.347434  -0.104367   0.002578   0.001220   0.003126   5.234272
     7  H   -0.027220   0.003048  -0.000062   0.000782   0.000006   0.360751
     8  H   -0.029763   0.004025   0.000270  -0.000197  -0.000008   0.360610
     9  H   -0.020411   0.006057  -0.000150  -0.000185  -0.000134   0.344953
    10  N    0.660098  -0.098650  -0.004246   0.006225  -0.006340  -0.065314
    11  C   -0.069133  -0.012645   0.001004   0.000221   0.001718   0.008186
    12  H   -0.001607   0.003819   0.001673  -0.000125  -0.000705  -0.000480
    13  H   -0.001423   0.003689  -0.000568  -0.000102   0.002453  -0.000474
    14  H    0.001586  -0.000411  -0.000004   0.000007  -0.000024   0.000138
               7          8          9         10         11         12
     1  C   -0.027220  -0.029763  -0.020411   0.660098  -0.069133  -0.001607
     2  C    0.003048   0.004025   0.006057  -0.098650  -0.012645   0.003819
     3  H   -0.000062   0.000270  -0.000150  -0.004246   0.001004   0.001673
     4  H    0.000782  -0.000197  -0.000185   0.006225   0.000221  -0.000125
     5  H    0.000006  -0.000008  -0.000134  -0.006340   0.001718  -0.000705
     6  C    0.360751   0.360610   0.344953  -0.065314   0.008186  -0.000480
     7  H    0.557833  -0.033216  -0.022088  -0.000193  -0.000192  -0.000005
     8  H   -0.033216   0.562818  -0.022571   0.000391  -0.000195   0.000038
     9  H   -0.022088  -0.022571   0.537037   0.009193  -0.000455   0.000056
    10  N   -0.000193   0.000391   0.009193   6.734230   0.288010  -0.032093
    11  C   -0.000192  -0.000195  -0.000455   0.288010   4.983773   0.350944
    12  H   -0.000005   0.000038   0.000056  -0.032093   0.350944   0.592942
    13  H    0.000043  -0.000004   0.000049  -0.031945   0.350288  -0.021915
    14  H   -0.000001  -0.000001  -0.000105  -0.052025   0.406522  -0.043314
              13         14
     1  C   -0.001423   0.001586
     2  C    0.003689  -0.000411
     3  H   -0.000568  -0.000004
     4  H   -0.000102   0.000007
     5  H    0.002453  -0.000024
     6  C   -0.000474   0.000138
     7  H    0.000043  -0.000001
     8  H   -0.000004  -0.000001
     9  H    0.000049  -0.000105
    10  N   -0.031945  -0.052025
    11  C    0.350288   0.406522
    12  H   -0.021915  -0.043314
    13  H    0.591542  -0.042895
    14  H   -0.042895   0.562173
 Mulliken charges:
               1
     1  C    0.276659
     2  C   -0.511361
     3  H    0.169542
     4  H    0.148630
     5  H    0.167093
     6  C   -0.492634
     7  H    0.160515
     8  H    0.157803
     9  H    0.168755
    10  C    0.000000
    11  H    0.000000
    12  H    0.000000
    13  H    0.000000
    14  N   -0.407342
    15  C   -0.308047
    16  H    0.150771
    17  H    0.151262
    18  H    0.168354
    19  H    0.000000
    20  H    0.000000
 Sum of Mulliken charges =   0.00000
 Mulliken charges with hydrogens summed into heavy atoms:
               1
     1  C    0.276659
     2  C   -0.026097
     6  C   -0.005561
    10  C    0.000000
    14  N   -0.407342
    15  C    0.162341
 Electronic spatial extent (au):  <R**2>=           1424.1672
 Charge=              0.0000 electrons
 Dipole moment (field-independent basis, Debye):
    X=             -1.4024    Y=             -0.0920    Z=             -0.0218  Tot=              1.4056
 Quadrupole moment (field-independent basis, Debye-Ang):
   XX=            -26.9129   YY=            -28.8848   ZZ=            -31.8104
   XY=             -1.4088   XZ=             -0.0694   YZ=              0.4497
 Traceless Quadrupole moment (field-independent basis, Debye-Ang):
   XX=              2.2898   YY=              0.3179   ZZ=             -2.6077
   XY=             -1.4088   XZ=             -0.0694   YZ=              0.4497
 Octapole moment (field-independent basis, Debye-Ang**2):
  XXX=            214.1222  YYY=            -68.7617  ZZZ=             -6.6137  XYY=             68.1944
  XXY=            -21.1598  XXZ=             -2.0595  XZZ=             73.7660  YZZ=            -26.5295
  YYZ=             -0.3725  XYZ=             -0.8148
 Hexadecapole moment (field-independent basis, Debye-Ang**3):
 XXXX=          -1268.7407 YYYY=           -535.2840 ZZZZ=            -59.6822 XXXY=            164.2429
 XXXZ=             14.3439 YYYX=            164.4333 YYYZ=            -30.8395 ZZZX=             14.0942
 ZZZY=            -33.2285 XXYY=           -291.1909 XXZZ=           -216.8692 YYZZ=           -101.6717
 XXYZ=             -9.9997 YYXZ=              2.4901 ZZXY=             57.4266
 N-N= 1.741253855048D+02 E-N=-8.405826344025D+02  KE= 2.104913847477D+02
 No NMR shielding tensors so no spin-rotation constants.
 Leave Link  601 at Tue Feb  7 16:47:55 2017, MaxMem=  1048576000 cpu:         1.1
 (Enter /mnt/data/applications/G09/g09/l701.exe)
 Compute integral first derivatives.
 ... and contract with generalized density number  0.
 Leave Link  701 at Tue Feb  7 16:47:56 2017, MaxMem=  1048576000 cpu:         1.2
 (Enter /mnt/data/applications/G09/g09/l702.exe)
 L702 exits ... SP integral derivatives will be done elsewhere.
 Leave Link  702 at Tue Feb  7 16:47:56 2017, MaxMem=  1048576000 cpu:         0.2
 (Enter /mnt/data/applications/G09/g09/l703.exe)
 Compute integral first derivatives, UseDBF=F ICtDFT=           0.
 Integral derivatives from FoFJK, PRISM(SPDF).
 Calling FoFJK, ICntrl=      2127 FMM=F ISym2X=0 I1Cent= 0 IOpClX= 0 NMat=1 NMatS=1 NMatT=0.
 FoFJK:  IHMeth= 1 ICntrl=    2127 DoSepK=F KAlg= 0 I1Cent=   0 FoldK=F
 IRaf=         0 NMat=   1 IRICut=       1 DoRegI=T DoRafI=F ISym2E= 0.
 FoFCou: FMM=F IPFlag=           0 FMFlag=      100000 FMFlg1=         800
         NFxFlg=           0 DoJE=F BraDBF=F KetDBF=F FulRan=T
         wScrn=  0.000000 ICntrl=    2127 IOpCl=  0 I1Cent=           0 NGrid=           0
         NMat0=    1 NMatS0=      1 NMatT0=    0 NMatD0=    1 NMtDS0=    0 NMtDT0=    0
 Symmetry not used in FoFCou.
 Leave Link  703 at Tue Feb  7 16:47:57 2017, MaxMem=  1048576000 cpu:         6.7
 (Enter /mnt/data/applications/G09/g09/l716.exe)
 Dipole        =-5.51756614D-01-3.61796336D-02-8.57789553D-03
 Cartesian Forces:  Max     0.056860090 RMS     0.015325386
 Leave Link  716 at Tue Feb  7 16:47:57 2017, MaxMem=  1048576000 cpu:         0.2
 (Enter /mnt/data/applications/G09/g09/l120.exe)
 SvSCFP is copying densities from files   528 and   530 to   603.
 ONIOM: saving gridpoint  2
 ONIOM: restoring gridpoint 17
 ONIOM: generating point  1 -- low level on model system.
 Leave Link  120 at Tue Feb  7 16:47:57 2017, MaxMem=  1048576000 cpu:         0.2
 (Enter /mnt/data/applications/G09/g09/l301.exe)
 Standard basis: STO-3G (5D, 7F)
 Ernie: Thresh=  0.10000D-02 Tol=  0.10000D-05 Strict=F.
    34 basis functions,   102 primitive gaussians,    34 cartesian basis functions
    20 alpha electrons       20 beta electrons
       nuclear repulsion energy       174.1253855048 Hartrees.
 IExCor=    0 DFT=F Ex=HF Corr=None ExCW=0 ScaHFX=  1.000000
 ScaDFX=  1.000000  1.000000  1.000000  1.000000 ScalE2=  1.000000  1.000000
 IRadAn=      0 IRanWt=     -1 IRanGd=            0 ICorTp=0 IEmpDi=  4
 NAtoms=   20 NActive=   14 NUniq=   14 SFac= 1.00D+00 NAtFMM=   60 NAOKFM=F Big=F
 Integral buffers will be    131072 words long.
 Raffenetti 1 integral format.
 Two-electron integral symmetry is turned off.
 Leave Link  301 at Tue Feb  7 16:47:57 2017, MaxMem=  1048576000 cpu:         0.4
 (Enter /mnt/data/applications/G09/g09/l402.exe)
 External calculation of energy and first derivatives.
 Running external command "./sictwo_files/sictwo_g09d01 M"
         input file       "/scratch/Gau-6106.EIn"
         output file      "/scratch/Gau-6106.EOu"
         message file     "/scratch/Gau-6106.EMs"
         fchk file        "/scratch/Gau-6106.EFC"
         mat. el file     "/scratch/Gau-6106.EUF"

---------------------------- SICTWO Version 1.0 STARTED -----------------------------

MM calculations started
MM calculations finished ....
Information recovery

---------------------------- SICTWO Version 1.0 FINISHED -----------------------------

 Recovered energy= 0.445679204468E-01 dipole=     -0.757353410275     -0.430019364899     -0.064522576252
 Energy=    4.456792045E-02 NIter=   0.
 Dipole moment=      -0.757353      -0.430019      -0.064523
 Leave Link  402 at Tue Feb  7 16:47:59 2017, MaxMem=  1048576000 cpu:        15.9
 (Enter /mnt/data/applications/G09/g09/l601.exe)
 Leave Link  601 at Tue Feb  7 16:47:59 2017, MaxMem=  1048576000 cpu:         0.2
 (Enter /mnt/data/applications/G09/g09/l716.exe)
 Dipole        =-7.57353410D-01-4.30019365D-01-6.45225763D-02
 Cartesian Forces:  Max     0.045356729 RMS     0.012368902
 Leave Link  716 at Tue Feb  7 16:47:59 2017, MaxMem=  1048576000 cpu:         0.2
 (Enter /mnt/data/applications/G09/g09/l120.exe)
 SvSCFP did not find density file   528.
 ONIOM: saving gridpoint  1
 ONIOM: restoring gridpoint  3
 ONIOM: calculating energy.
 ONIOM: gridpoint  1 method:  low   system:  model energy:     0.044567920447
 ONIOM: gridpoint  2 method:  high  system:  model energy:  -212.559594451056
 ONIOM: gridpoint  3 method:  low   system:  real  energy:     0.045778897847
 ONIOM: extrapolated energy =    -212.558383473656
 ONIOM: calculating first derivatives.
 ONIOM: calculating electric field derivatives.
 ONIOM: Integrating ONIOM file  4 number   619
 ONIOM: Dipole        =-5.51756614D-01-3.61796336D-02-8.57789553D-03
 ONIOM: Dipole moment (Debye):
    X=    -1.4024    Y=    -0.0920    Z=    -0.0218  Tot=     1.4056
 ONIOM: Integrating ONIOM file  5 number   695
 Nuclear Quadrupole Tensors: 
                 1             2             3             4             5 
      1   0.117961D+00 -0.361954D-01  0.111571D+00  0.108265D+00  0.111105D+00
      2  -0.189901D-01  0.152062D-02  0.791318D-01 -0.158249D+00  0.782784D-01
      3   0.159936D+00  0.264902D-01  0.566831D-01 -0.277676D+00  0.561327D-01
      4  -0.361587D-02  0.297359D-02 -0.137580D+00  0.287072D-03  0.137147D+00
      5   0.673007D-01  0.436964D-02  0.195019D+00 -0.470760D-03 -0.195083D+00
      6  -0.277898D+00  0.970526D-02 -0.168254D+00  0.169412D+00 -0.167238D+00
                 6             7             8             9            10 
      1  -0.942813D-03  0.148274D+00  0.124248D+00  0.000000D+00  0.000000D+00
      2   0.670557D-01 -0.579727D-01 -0.598643D-01  0.000000D+00  0.000000D+00
      3  -0.201232D-01 -0.246464D-01  0.744960D-01  0.000000D+00  0.000000D+00
      4   0.100974D-01  0.774193D-01 -0.126975D+00  0.000000D+00  0.000000D+00
      5  -0.838513D-02  0.237925D+00 -0.186591D+00  0.000000D+00  0.000000D+00
      6   0.210660D-01 -0.123627D+00 -0.198744D+00  0.000000D+00  0.000000D+00
                11            12            13            14            15 
      1   0.000000D+00  0.000000D+00  0.000000D+00  0.120418D+01  0.125070D+00
      2   0.000000D+00  0.000000D+00  0.000000D+00 -0.185233D+00  0.723527D-01
      3   0.000000D+00  0.000000D+00  0.000000D+00 -0.554196D+00 -0.225259D+00
      4   0.000000D+00  0.000000D+00  0.000000D+00 -0.406640D-01  0.112952D-01
      5   0.000000D+00  0.000000D+00  0.000000D+00  0.180082D-01 -0.503906D-01
      6   0.000000D+00  0.000000D+00  0.000000D+00 -0.649983D+00  0.100190D+00
                16            17            18            19            20 
      1   0.242499D-01  0.411712D-01 -0.208503D+00  0.000000D+00  0.000000D+00
      2   0.985035D-01  0.317354D-01 -0.209492D+00  0.000000D+00  0.000000D+00
      3   0.958175D-01  0.153308D+00  0.406958D-01  0.000000D+00  0.000000D+00
      4  -0.207831D+00  0.219396D+00 -0.233458D-01  0.000000D+00  0.000000D+00
      5   0.135879D+00 -0.539334D-01 -0.148299D-01  0.000000D+00  0.000000D+00
      6  -0.120067D+00 -0.194479D+00  0.167807D+00  0.000000D+00  0.000000D+00
 Saving ESP charges from gridpoint 2
 Leave Link  120 at Tue Feb  7 16:47:59 2017, MaxMem=  1048576000 cpu:         0.0
 (Enter /mnt/data/applications/G09/g09/l716.exe)
 Dipole        =-5.51756614D-01-3.61796336D-02-8.57789553D-03
 -------------------------------------------------------------------
 Center     Atomic                   Forces (Hartrees/Bohr)
 Number     Number              X              Y              Z
 -------------------------------------------------------------------
      1        6          -0.002847493    0.057998120    0.009072385
      2        6           0.029185260   -0.015276187   -0.000111609
      3        1          -0.007904617    0.008335325   -0.014137929
      4        1          -0.012082923   -0.014932641   -0.000445209
      5        1          -0.007371992    0.008632294    0.013204811
      6        6           0.013470249    0.039192990    0.003029281
      7        1          -0.007206253   -0.014112983    0.012894135
      8        1          -0.008941274   -0.010841234   -0.014808941
      9        6          -0.011889615   -0.032083819   -0.003606375
     10        6          -0.011802785    0.023753400    0.004194559
     11        1          -0.002431900   -0.007927245   -0.012696342
     12        1           0.014574618    0.001245971   -0.000696226
     13        1          -0.001091142   -0.011207080    0.010164259
     14        7           0.027158653   -0.026210760   -0.004124428
     15        6          -0.015042801   -0.049595528   -0.007705946
     16        1          -0.012076852    0.011941084   -0.013023574
     17        1          -0.011529911    0.007264035    0.016428086
     18        1           0.014939465    0.006212758    0.000738803
     19        1           0.007158833    0.007154026    0.012676103
     20        1           0.005732480    0.010457557   -0.011046094
 -------------------------------------------------------------------
 Cartesian Forces:  Max     0.057998120 RMS     0.016620346
 Leave Link  716 at Tue Feb  7 16:48:00 2017, MaxMem=  1048576000 cpu:         0.2
 (Enter /mnt/data/applications/G09/g09/l103.exe)

 GradGradGradGradGradGradGradGradGradGradGradGradGradGradGradGradGradGrad
 Berny optimization.
 FormGI is forming the generalized inverse of G from B-inverse, IUseBI=4.
 Internal  Forces:  Max     0.063917377 RMS     0.011485529
 Search for a local minimum.
 Step number   1 out of a maximum of   98
 All quantities printed in internal units (Hartrees-Bohrs-Radians)
 RMS Force = .11486D-01 SwitMx=.10000D-02 MixMth= 1
 Mixed Optimization -- RFO/linear search
 Second derivative matrix not updated -- first step.
 ITU=  0
     Eigenvalues ---    0.00237   0.00237   0.00237   0.00237   0.00647
     Eigenvalues ---    0.00766   0.03099   0.03840   0.04356   0.04896
     Eigenvalues ---    0.05410   0.05720   0.05720   0.07243   0.07243
     Eigenvalues ---    0.07655   0.08669   0.10141   0.10141   0.11701
     Eigenvalues ---    0.12376   0.16000   0.16000   0.16000   0.16000
     Eigenvalues ---    0.16000   0.16000   0.16000   0.16000   0.16000
     Eigenvalues ---    0.21948   0.21983   0.25000   0.25000   0.25000
     Eigenvalues ---    0.28519   0.28519   0.28519   0.28519   0.35740
     Eigenvalues ---    0.37230   0.37230   0.37230   0.37230   0.37230
     Eigenvalues ---    0.37230   0.37230   0.37230   0.37230   0.37230
     Eigenvalues ---    0.37230   0.37230   0.37230   0.69002
 RFO step:  Lambda=-3.37155088D-02 EMin= 2.36824112D-03
 Linear search not attempted -- first point.
 Maximum step size (   0.300) exceeded in Quadratic search.
    -- Step size scaled by   0.928
 Iteration  1 RMS(Cart)=  0.13188286 RMS(Int)=  0.00634534
 Iteration  2 RMS(Cart)=  0.01595933 RMS(Int)=  0.00022846
 Iteration  3 RMS(Cart)=  0.00018448 RMS(Int)=  0.00021410
 Iteration  4 RMS(Cart)=  0.00000002 RMS(Int)=  0.00021410
 ITry= 1 IFail=0 DXMaxC= 4.74D-01 DCOld= 1.00D+10 DXMaxT= 3.00D-01 DXLimC= 3.00D+00 Rises=F
 Variable       Old X    -DE/DX   Delta X   Delta X   Delta X     New X
                                 (Linear)    (Quad)   (Total)
    R1        2.91018  -0.00183   0.00000  -0.00532  -0.00532   2.90486
    R2        2.91018  -0.00605   0.00000  -0.01761  -0.01761   2.89257
    R3        2.44455  -0.04247   0.00000  -0.05447  -0.05447   2.39008
    R4        2.02201   0.01811   0.00000   0.04140   0.04140   2.06341
    R5        2.02201   0.01810   0.00000   0.04139   0.04139   2.06340
    R6        2.02201   0.01731   0.00000   0.03957   0.03957   2.06158
    R7        2.02201   0.01993   0.00000   0.04558   0.04558   2.06758
    R8        2.02201   0.01991   0.00000   0.04552   0.04552   2.06753
    R9        2.91018  -0.00134   0.00000  -0.00389  -0.00389   2.90629
   R10        2.91018  -0.00553   0.00000  -0.01609  -0.01609   2.89408
   R11        2.02201   0.01598   0.00000   0.03653   0.03653   2.05854
   R12        2.02201   0.01600   0.00000   0.03658   0.03658   2.05859
   R13        2.02201   0.01493   0.00000   0.03413   0.03413   2.05613
   R14        2.02201   0.01456   0.00000   0.03330   0.03330   2.05530
   R15        2.02201   0.01493   0.00000   0.03413   0.03413   2.05614
   R16        2.77790  -0.01989   0.00000  -0.04722  -0.04722   2.73068
   R17        2.02201   0.02072   0.00000   0.04738   0.04738   2.06939
   R18        2.02201   0.02075   0.00000   0.04744   0.04744   2.06945
   R19        2.02201   0.01608   0.00000   0.03677   0.03677   2.05877
    A1        2.09241  -0.01750   0.00000  -0.05726  -0.05726   2.03515
    A2        2.09241   0.01150   0.00000   0.03762   0.03762   2.13003
    A3        2.09836   0.00600   0.00000   0.01964   0.01964   2.11800
    A4        1.91063   0.00069   0.00000   0.00141   0.00128   1.91191
    A5        1.91063   0.00906   0.00000   0.04629   0.04603   1.95666
    A6        1.91063   0.00046   0.00000   0.00121   0.00104   1.91167
    A7        1.91063  -0.00425   0.00000  -0.01841  -0.01863   1.89200
    A8        1.91063  -0.00239   0.00000  -0.01717  -0.01720   1.89343
    A9        1.91063  -0.00357   0.00000  -0.01333  -0.01361   1.89702
   A10        1.91063  -0.00544   0.00000  -0.02039  -0.02117   1.88946
   A11        1.91063  -0.00543   0.00000  -0.01997  -0.02079   1.88984
   A12        1.91063   0.01558   0.00000   0.06504   0.06465   1.97528
   A13        1.91063  -0.00057   0.00000  -0.02884  -0.02930   1.88133
   A14        1.91063  -0.00211   0.00000   0.00167   0.00171   1.91234
   A15        1.91063  -0.00202   0.00000   0.00249   0.00249   1.91313
   A16        1.91063   0.00435   0.00000   0.01916   0.01914   1.92977
   A17        1.91063   0.00015   0.00000   0.00772   0.00780   1.91843
   A18        1.91063   0.00018   0.00000   0.00821   0.00828   1.91891
   A19        1.91063  -0.00221   0.00000  -0.01212  -0.01230   1.89833
   A20        1.91063  -0.00217   0.00000  -0.01161  -0.01181   1.89883
   A21        1.91063  -0.00030   0.00000  -0.01136  -0.01155   1.89908
   A22        1.91063   0.00301   0.00000   0.01494   0.01484   1.92548
   A23        1.91063   0.00088   0.00000   0.00319   0.00317   1.91380
   A24        1.91063   0.00304   0.00000   0.01507   0.01498   1.92561
   A25        1.91063  -0.00219   0.00000  -0.01156  -0.01158   1.89906
   A26        1.91063  -0.00255   0.00000  -0.01020  -0.01036   1.90028
   A27        1.91063  -0.00218   0.00000  -0.01144  -0.01146   1.89917
   A28        2.44342  -0.06392   0.00000  -0.20913  -0.20913   2.23429
   A29        1.91063   0.00719   0.00000   0.03525   0.03503   1.94567
   A30        1.91063   0.00646   0.00000   0.03145   0.03123   1.94186
   A31        1.91063  -0.00541   0.00000  -0.02720  -0.02707   1.88356
   A32        1.91063  -0.00528   0.00000  -0.02270  -0.02322   1.88742
   A33        1.91063  -0.00149   0.00000  -0.00814  -0.00801   1.90262
   A34        1.91063  -0.00148   0.00000  -0.00867  -0.00855   1.90208
    D1       -1.94508  -0.00091   0.00000  -0.00661  -0.00669  -1.95177
    D2        0.14931  -0.00015   0.00000   0.00005   0.00003   0.14935
    D3        2.24371   0.00131   0.00000   0.01282   0.01292   2.25663
    D4        1.19651  -0.00090   0.00000  -0.00620  -0.00628   1.19023
    D5       -2.99228  -0.00013   0.00000   0.00046   0.00044  -2.99184
    D6       -0.89788   0.00132   0.00000   0.01323   0.01333  -0.88455
    D7       -1.11542   0.00366   0.00000   0.02992   0.02952  -1.08590
    D8        0.97898  -0.00369   0.00000  -0.03012  -0.02972   0.94925
    D9        3.07337   0.00005   0.00000   0.00053   0.00053   3.07390
   D10        2.02617   0.00365   0.00000   0.02951   0.02911   2.05529
   D11       -2.16262  -0.00371   0.00000  -0.03053  -0.03013  -2.19274
   D12       -0.06822   0.00003   0.00000   0.00012   0.00013  -0.06809
   D13        0.00000   0.00009   0.00000   0.00124   0.00123   0.00123
   D14        3.14159   0.00011   0.00000   0.00165   0.00166  -3.13993
   D15       -3.11765  -0.00009   0.00000  -0.00171  -0.00172  -3.11938
   D16        1.07114  -0.00014   0.00000  -0.00333  -0.00339   1.06775
   D17       -1.02326   0.00003   0.00000   0.00083   0.00087  -1.02239
   D18        1.07114  -0.00167   0.00000  -0.01759  -0.01781   1.05332
   D19       -1.02326  -0.00171   0.00000  -0.01921  -0.01948  -1.04273
   D20       -3.11765  -0.00155   0.00000  -0.01505  -0.01522  -3.13288
   D21       -1.02326   0.00156   0.00000   0.01518   0.01541  -1.00785
   D22       -3.11765   0.00152   0.00000   0.01357   0.01375  -3.10390
   D23        1.07114   0.00168   0.00000   0.01772   0.01800   1.08914
   D24        1.05531   0.00030   0.00000   0.00281   0.00285   1.05816
   D25       -3.13348   0.00000   0.00000  -0.00024  -0.00024  -3.13372
   D26       -1.03908  -0.00028   0.00000  -0.00307  -0.00311  -1.04220
   D27       -3.13348   0.00179   0.00000   0.01659   0.01653  -3.11695
   D28       -1.03908   0.00149   0.00000   0.01353   0.01343  -1.02565
   D29        1.05531   0.00121   0.00000   0.01070   0.01056   1.06587
   D30       -1.03908  -0.00126   0.00000  -0.01186  -0.01173  -1.05081
   D31        1.05531  -0.00156   0.00000  -0.01492  -0.01482   1.04049
   D32       -3.13348  -0.00184   0.00000  -0.01775  -0.01769   3.13202
   D33       -1.02734  -0.00097   0.00000  -0.00809  -0.00860  -1.03594
   D34        1.06706   0.00093   0.00000   0.00496   0.00545   1.07251
   D35       -3.12173  -0.00024   0.00000  -0.00305  -0.00304  -3.12477
         Item               Value     Threshold  Converged?
 Maximum Force            0.063917     0.000450     NO 
 RMS     Force            0.011486     0.000300     NO 
 Maximum Displacement     0.473579     0.001800     NO 
 RMS     Displacement     0.140441     0.001200     NO 
 Predicted change in Energy=-1.840424D-02
 Lowest energy point so far.  Saving SCF results.
 GradGradGradGradGradGradGradGradGradGradGradGradGradGradGradGradGradGrad

 Leave Link  103 at Tue Feb  7 16:48:00 2017, MaxMem=  1048576000 cpu:         0.1
 (Enter /mnt/data/applications/G09/g09/l202.exe)
                          Input orientation:                          
 ---------------------------------------------------------------------
 Center     Atomic      Atomic             Coordinates (Angstroms)
 Number     Number       Type             X           Y           Z
 ---------------------------------------------------------------------
      1          6    10061002       -2.260813    0.493335    0.015008
      2          6    10061003       -3.797495    0.454062    0.011696
      3          1    10011000       -4.174083    0.966410   -0.875965
      4          1    10011000       -4.182460   -0.567726    0.009297
      5          1    10011000       -4.177389    0.968720    0.895416
      6          6    10061003       -1.540512   -0.841756   -0.189174
      7          1    10011000       -1.804969   -1.504308    0.640392
      8          1    10011000       -1.914230   -1.295725   -1.111821
      9          6    10061003       -0.011206   -0.698724   -0.266805
     10          6    10061003        0.645407   -2.062073   -0.502558
     11          1    10011000        0.300138   -2.490518   -1.441225
     12          1    10011000        1.725792   -1.944960   -0.546957
     13          1    10011000        0.399513   -2.745261    0.307795
     14          7    10071002       -1.617446    1.569983    0.177991
     15          6    10061003       -2.144896    2.899585    0.382984
     16          1    10011000       -2.777264    3.213554   -0.454104
     17          1    10011000       -2.741443    2.953150    1.299781
     18          1    10011000       -1.302363    3.585037    0.467890
     19          1    10011000        0.370344   -0.282374    0.664710
     20          1    10011000        0.258658   -0.032899   -1.085677
 ---------------------------------------------------------------------
                    Distance matrix (angstroms):
                    1          2          3          4          5
     1  C    0.000000
     2  C    1.537187   0.000000
     3  H    2.162922   1.091907   0.000000
     4  H    2.195133   1.091904   1.771252   0.000000
     5  H    2.162030   1.090942   1.771386   1.773668   0.000000
     6  C    1.530684   2.610261   3.267544   2.663527   3.377467
     7  H    2.142307   2.863675   3.743861   2.632097   3.436464
     8  H    2.142568   2.805482   3.206216   2.632823   3.778704
     9  C    2.561476   3.967677   4.524743   4.182434   4.635538
    10  C    3.904370   5.131742   5.704264   5.079702   5.865101
    11  H    4.193145   5.250917   5.682299   5.088697   6.121640
    12  H    4.706815   6.047652   6.587325   6.092097   6.739252
    13  H    4.201377   5.285662   6.007959   5.081854   5.923427
    14  N    1.264775   2.454699   2.830462   3.343285   2.725716
    15  C    2.436982   2.974814   3.072413   4.039004   2.849887
    16  H    2.808270   2.978697   2.679314   4.060467   2.969989
    17  H    2.816440   3.003306   3.276196   4.017268   2.482622
    18  H    3.268386   4.029491   4.112168   5.074515   3.910712
    19  H    2.819012   4.282482   4.958323   4.608581   4.722324
    20  H    2.799315   4.230099   4.548823   4.605273   4.960493
                    6          7          8          9         10
     6  C    0.000000
     7  H    1.094118   0.000000
     8  H    1.094089   1.767964   0.000000
     9  C    1.537941   2.165539   2.166094   0.000000
    10  C    2.523019   2.760757   2.740481   1.531483   0.000000
    11  H    2.770206   3.120451   2.537610   2.164884   1.088059
    12  H    3.466094   3.751032   3.740366   2.156096   1.087620
    13  H    2.762971   2.551534   3.077316   2.164987   1.088063
    14  N    2.440741   3.114522   3.156577   2.815117   4.333069
    15  C    3.832790   4.424487   4.459627   4.233519   5.760905
    16  H    4.247974   4.939788   4.637997   4.795006   6.288821
    17  H    4.249769   4.602251   4.955103   4.821262   6.314400
    18  H    4.481623   5.117011   5.166402   4.534035   6.051895
    19  H    2.166425   2.495136   3.066304   1.089333   2.146043
    20  H    2.166790   3.066418   2.513336   1.089358   2.146427
                   11         12         13         14         15
    11  H    0.000000
    12  H    1.769135   0.000000
    13  H    1.770265   1.769208   0.000000
    14  N    4.773537   4.904856   4.765114   0.000000
    15  C    6.193476   6.270297   6.192250   1.445014   0.000000
    16  H    6.556009   6.848095   6.795578   2.108565   1.095072
    17  H    6.811597   6.881723   6.581909   2.105928   1.095104
    18  H    6.566970   6.385961   6.557033   2.060039   1.089456
    19  H    3.052178   2.463648   2.488785   2.760333   4.065792
    20  H    2.483551   2.469550   3.052623   2.772338   4.066141
                   16         17         18         19         20
    16  H    0.000000
    17  H    1.773472   0.000000
    18  H    1.778597   1.778278   0.000000
    19  H    4.835359   4.533779   4.218241   0.000000
    20  H    4.489451   4.858755   4.235542   1.771600   0.000000
 Symmetry turned off by external request.
 Stoichiometry    C6H13N
 Framework group  C1[X(C6H13N)]
 Deg. of freedom    54
 Full point group                 C1      NOp   1
 Rotational constants (GHZ):      4.8359080      1.3258526      1.0758020
 Leave Link  202 at Tue Feb  7 16:48:00 2017, MaxMem=  1048576000 cpu:         0.0
 (Enter /mnt/data/applications/G09/g09/l120.exe)
 SvSCFP did not find density file   528.
 ONIOM: saving gridpoint 17
 ONIOM: restoring gridpoint  3
 ONIOM: restoring gridpoint  3 on chk file.
 ONIOM: generating point  3 -- low level on real system.
 Leave Link  120 at Tue Feb  7 16:48:00 2017, MaxMem=  1048576000 cpu:         0.0
 (Enter /mnt/data/applications/G09/g09/l301.exe)
 Standard basis: STO-3G (5D, 7F)
 Ernie: Thresh=  0.10000D-02 Tol=  0.10000D-05 Strict=F.
    48 basis functions,   144 primitive gaussians,    48 cartesian basis functions
    28 alpha electrons       28 beta electrons
       nuclear repulsion energy       305.3046253696 Hartrees.
 IExCor=    0 DFT=F Ex=HF Corr=None ExCW=0 ScaHFX=  1.000000
 ScaDFX=  1.000000  1.000000  1.000000  1.000000 ScalE2=  1.000000  1.000000
 IRadAn=      0 IRanWt=     -1 IRanGd=            0 ICorTp=0 IEmpDi=  4
 NAtoms=   20 NActive=   20 NUniq=   20 SFac= 1.00D+00 NAtFMM=   60 NAOKFM=F Big=F
 Integral buffers will be    131072 words long.
 Raffenetti 1 integral format.
 Two-electron integral symmetry is turned off.
 Leave Link  301 at Tue Feb  7 16:48:00 2017, MaxMem=  1048576000 cpu:         0.4
 (Enter /mnt/data/applications/G09/g09/l402.exe)
 External calculation of energy and first derivatives.
 Running external command "./sictwo_files/sictwo_g09d01 R"
         input file       "/scratch/Gau-6106.EIn"
         output file      "/scratch/Gau-6106.EOu"
         message file     "/scratch/Gau-6106.EMs"
         fchk file        "/scratch/Gau-6106.EFC"
         mat. el file     "/scratch/Gau-6106.EUF"

---------------------------- SICTWO Version 1.0 STARTED -----------------------------

MM calculations started
MM calculations finished ....
Information recovery

---------------------------- SICTWO Version 1.0 FINISHED -----------------------------

 Recovered energy= 0.268400654824E-01 dipole=     -0.886398562779     -0.455985767537     -0.067276588653
 Energy=    2.684006548E-02 NIter=   0.
 Dipole moment=      -0.886399      -0.455986      -0.067277
 Leave Link  402 at Tue Feb  7 16:48:03 2017, MaxMem=  1048576000 cpu:        18.4
 (Enter /mnt/data/applications/G09/g09/l716.exe)
 Dipole        =-8.86398563D-01-4.55985768D-01-6.72765887D-02
 Cartesian Forces:  Max     0.032943650 RMS     0.007360401
 Leave Link  716 at Tue Feb  7 16:48:03 2017, MaxMem=  1048576000 cpu:         0.2
 (Enter /mnt/data/applications/G09/g09/l120.exe)
 SvSCFP did not find density file   528.
 ONIOM: saving gridpoint  3
 ONIOM: restoring gridpoint  2
 ONIOM: restoring gridpoint  2 on chk file.
 ONIOM: generating point  2 -- high level on model system.
 Leave Link  120 at Tue Feb  7 16:48:03 2017, MaxMem=  1048576000 cpu:         0.0
 (Enter /mnt/data/applications/G09/g09/l301.exe)
 Standard basis: 6-31G(d) (6D, 7F)
 Ernie: Thresh=  0.10000D-02 Tol=  0.10000D-05 Strict=F.
    93 basis functions,   176 primitive gaussians,    93 cartesian basis functions
    20 alpha electrons       20 beta electrons
       nuclear repulsion energy       176.3424235604 Hartrees.
 IExCor=  402 DFT=T Ex+Corr=B3LYP ExCW=0 ScaHFX=  0.200000
 ScaDFX=  0.800000  0.720000  1.000000  0.810000 ScalE2=  1.000000  1.000000
 IRadAn=      0 IRanWt=     -1 IRanGd=            0 ICorTp=0 IEmpDi=  4
 NAtoms=   20 NActive=   14 NUniq=   14 SFac= 1.00D+00 NAtFMM=   60 NAOKFM=F Big=F
 Integral buffers will be    131072 words long.
 Raffenetti 2 integral format.
 Two-electron integral symmetry is turned off.
 Leave Link  301 at Tue Feb  7 16:48:03 2017, MaxMem=  1048576000 cpu:         0.4
 (Enter /mnt/data/applications/G09/g09/l302.exe)
 NPDir=0 NMtPBC=     1 NCelOv=     1 NCel=       1 NClECP=     1 NCelD=      1
         NCelK=      1 NCelE2=     1 NClLst=     1 CellRange=     0.0.
 One-electron integrals computed using PRISM.
 NBasis=    93 RedAO= T EigKep=  3.46D-03  NBF=    93
 NBsUse=    93 1.00D-06 EigRej= -1.00D+00 NBFU=    93
 Precomputing XC quadrature grid using
 IXCGrd= 4 IRadAn=           0 IRanWt=          -1 IRanGd=           0 AccXCQ= 0.00D+00.
 Generated NRdTot=       0 NPtTot=           0 NUsed=           0 NTot=          32
 NSgBfM=    93    93    93    93    93 MxSgAt=    14 MxSgA2=    14.
 Leave Link  302 at Tue Feb  7 16:48:03 2017, MaxMem=  1048576000 cpu:         1.4
 (Enter /mnt/data/applications/G09/g09/l303.exe)
 DipDrv:  MaxL=1.
 Leave Link  303 at Tue Feb  7 16:48:03 2017, MaxMem=  1048576000 cpu:         0.2
 (Enter /mnt/data/applications/G09/g09/l401.exe)
 Initial guess from the checkpoint file:  "I_3.chk"
 B after Tr=     0.104015    0.371190    0.050066
         Rot=    0.999660   -0.001109    0.003533   -0.025810 Ang=  -2.99 deg.
 Guess basis will be translated and rotated to current coordinates.
 JPrj=2 DoOrth=T DoCkMO=T.
 Generating alternative initial guess.
 ExpMin= 1.61D-01 ExpMax= 4.17D+03 ExpMxC= 6.27D+02 IAcc=1 IRadAn=         1 AccDes= 0.00D+00
 Harris functional with IExCor=  402 and IRadAn=       1 diagonalized for initial guess.
 HarFok:  IExCor=  402 AccDes= 0.00D+00 IRadAn=         1 IDoV= 1 UseB2=F ITyADJ=14
 ICtDFT=  3500011 ScaDFX=  1.000000  1.000000  1.000000  1.000000
 FoFCou: FMM=F IPFlag=           0 FMFlag=      100000 FMFlg1=           0
         NFxFlg=           0 DoJE=T BraDBF=F KetDBF=T FulRan=T
         wScrn=  0.000000 ICntrl=     500 IOpCl=  0 I1Cent=   200000004 NGrid=           0
         NMat0=    1 NMatS0=      1 NMatT0=    0 NMatD0=    1 NMtDS0=    0 NMtDT0=    0
 Symmetry not used in FoFCou.
 Harris En= -212.620559383117    
 Leave Link  401 at Tue Feb  7 16:48:04 2017, MaxMem=  1048576000 cpu:         3.2
 (Enter /mnt/data/applications/G09/g09/l502.exe)
 Closed shell SCF:
 Using DIIS extrapolation, IDIIS=  1040.
 Two-electron integral symmetry not used.
 Keep R1 ints in memory in canonical form, NReq=10509869.
 IVT=       39315 IEndB=       39315 NGot=  1048576000 MDV=  1038981680
 LenX=  1038981680 LenY=  1038972590
 Requested convergence on RMS density matrix=1.00D-08 within 100 cycles.
 Requested convergence on MAX density matrix=1.00D-06.
 Requested convergence on             energy=1.00D-06.
 No special actions if energy rises.
 FoFCou: FMM=F IPFlag=           0 FMFlag=           0 FMFlg1=           0
         NFxFlg=           0 DoJE=F BraDBF=F KetDBF=F FulRan=T
         wScrn=  0.000000 ICntrl=     600 IOpCl=  0 I1Cent=           0 NGrid=           0
         NMat0=    1 NMatS0=   4371 NMatT0=    0 NMatD0=    1 NMtDS0=    0 NMtDT0=    0
 Symmetry not used in FoFCou.
 Integral accuracy reduced to 1.0D-05 until final iterations.

 Cycle   1  Pass 0  IDiag  1:
 E= -212.562331480081    
 DIIS: error= 8.25D-03 at cycle   1 NSaved=   1.
 NSaved= 1 IEnMin= 1 EnMin= -212.562331480081     IErMin= 1 ErrMin= 8.25D-03
 ErrMax= 8.25D-03  0.00D+00 EMaxC= 1.00D-01 BMatC= 8.08D-03 BMatP= 8.08D-03
 IDIUse=3 WtCom= 9.17D-01 WtEn= 8.25D-02
 Coeff-Com:  0.100D+01
 Coeff-En:   0.100D+01
 Coeff:      0.100D+01
 Gap=     1.905 Goal=   None    Shift=    0.000
 GapD=    1.905 DampG=2.000 DampE=1.000 DampFc=2.0000 IDamp=-1.
 RMSDP=1.66D-03 MaxDP=2.12D-02              OVMax= 3.43D-02

 Cycle   2  Pass 0  IDiag  1:
 E= -212.576609595483     Delta-E=       -0.014278115402 Rises=F Damp=F
 DIIS: error= 2.37D-03 at cycle   2 NSaved=   2.
 NSaved= 2 IEnMin= 2 EnMin= -212.576609595483     IErMin= 2 ErrMin= 2.37D-03
 ErrMax= 2.37D-03  0.00D+00 EMaxC= 1.00D-01 BMatC= 6.95D-04 BMatP= 8.08D-03
 IDIUse=3 WtCom= 9.76D-01 WtEn= 2.37D-02
 Coeff-Com:  0.661D-01 0.934D+00
 Coeff-En:   0.000D+00 0.100D+01
 Coeff:      0.645D-01 0.935D+00
 Gap=     0.229 Goal=   None    Shift=    0.000
 RMSDP=5.38D-04 MaxDP=1.06D-02 DE=-1.43D-02 OVMax= 1.64D-02

 Cycle   3  Pass 0  IDiag  1:
 E= -212.576211897548     Delta-E=        0.000397697936 Rises=F Damp=F
 DIIS: error= 3.10D-03 at cycle   3 NSaved=   3.
 NSaved= 3 IEnMin= 2 EnMin= -212.576609595483     IErMin= 2 ErrMin= 2.37D-03
 ErrMax= 3.10D-03  0.00D+00 EMaxC= 1.00D-01 BMatC= 1.22D-03 BMatP= 6.95D-04
 IDIUse=3 WtCom= 1.52D-01 WtEn= 8.48D-01
 Coeff-Com: -0.375D-01 0.591D+00 0.447D+00
 Coeff-En:   0.000D+00 0.604D+00 0.396D+00
 Coeff:     -0.572D-02 0.602D+00 0.404D+00
 Gap=     0.232 Goal=   None    Shift=    0.000
 RMSDP=3.58D-04 MaxDP=8.40D-03 DE= 3.98D-04 OVMax= 1.38D-02

 Cycle   4  Pass 0  IDiag  1:
 E= -212.577258178432     Delta-E=       -0.001046280884 Rises=F Damp=F
 DIIS: error= 5.21D-04 at cycle   4 NSaved=   4.
 NSaved= 4 IEnMin= 4 EnMin= -212.577258178432     IErMin= 4 ErrMin= 5.21D-04
 ErrMax= 5.21D-04  0.00D+00 EMaxC= 1.00D-01 BMatC= 4.62D-05 BMatP= 6.95D-04
 IDIUse=3 WtCom= 9.95D-01 WtEn= 5.21D-03
 Coeff-Com: -0.271D-01 0.325D+00 0.256D+00 0.447D+00
 Coeff-En:   0.000D+00 0.000D+00 0.000D+00 0.100D+01
 Coeff:     -0.270D-01 0.323D+00 0.254D+00 0.450D+00
 Gap=     0.231 Goal=   None    Shift=    0.000
 RMSDP=6.34D-05 MaxDP=1.49D-03 DE=-1.05D-03 OVMax= 2.85D-03

 Cycle   5  Pass 0  IDiag  1:
 E= -212.577300791292     Delta-E=       -0.000042612860 Rises=F Damp=F
 DIIS: error= 9.02D-05 at cycle   5 NSaved=   5.
 NSaved= 5 IEnMin= 5 EnMin= -212.577300791292     IErMin= 5 ErrMin= 9.02D-05
 ErrMax= 9.02D-05  0.00D+00 EMaxC= 1.00D-01 BMatC= 7.50D-07 BMatP= 4.62D-05
 IDIUse=1 WtCom= 1.00D+00 WtEn= 0.00D+00
 Coeff-Com: -0.471D-02 0.439D-01 0.381D-01 0.134D+00 0.789D+00
 Coeff:     -0.471D-02 0.439D-01 0.381D-01 0.134D+00 0.789D+00
 Gap=     0.231 Goal=   None    Shift=    0.000
 RMSDP=1.71D-05 MaxDP=2.08D-04 DE=-4.26D-05 OVMax= 2.89D-04

 Cycle   6  Pass 0  IDiag  1:
 E= -212.577301432209     Delta-E=       -0.000000640917 Rises=F Damp=F
 DIIS: error= 2.85D-05 at cycle   6 NSaved=   6.
 NSaved= 6 IEnMin= 6 EnMin= -212.577301432209     IErMin= 6 ErrMin= 2.85D-05
 ErrMax= 2.85D-05  0.00D+00 EMaxC= 1.00D-01 BMatC= 1.00D-07 BMatP= 7.50D-07
 IDIUse=1 WtCom= 1.00D+00 WtEn= 0.00D+00
 Coeff-Com: -0.907D-03 0.464D-02 0.478D-02 0.362D-01 0.340D+00 0.616D+00
 Coeff:     -0.907D-03 0.464D-02 0.478D-02 0.362D-01 0.340D+00 0.616D+00
 Gap=     0.231 Goal=   None    Shift=    0.000
 RMSDP=5.50D-06 MaxDP=6.27D-05 DE=-6.41D-07 OVMax= 8.21D-05

 Initial convergence to 1.0D-05 achieved.  Increase integral accuracy.
 Cycle   7  Pass 1  IDiag  1:
 E= -212.577302278567     Delta-E=       -0.000000846359 Rises=F Damp=F
 DIIS: error= 1.19D-05 at cycle   1 NSaved=   1.
 NSaved= 1 IEnMin= 1 EnMin= -212.577302278567     IErMin= 1 ErrMin= 1.19D-05
 ErrMax= 1.19D-05  0.00D+00 EMaxC= 1.00D-01 BMatC= 2.00D-08 BMatP= 2.00D-08
 IDIUse=1 WtCom= 1.00D+00 WtEn= 0.00D+00
 Coeff-Com:  0.100D+01
 Coeff:      0.100D+01
 Gap=     0.231 Goal=   None    Shift=    0.000
 RMSDP=5.50D-06 MaxDP=6.27D-05 DE=-8.46D-07 OVMax= 7.31D-05

 Cycle   8  Pass 1  IDiag  1:
 E= -212.577302293324     Delta-E=       -0.000000014757 Rises=F Damp=F
 DIIS: error= 9.87D-06 at cycle   2 NSaved=   2.
 NSaved= 2 IEnMin= 2 EnMin= -212.577302293324     IErMin= 2 ErrMin= 9.87D-06
 ErrMax= 9.87D-06  0.00D+00 EMaxC= 1.00D-01 BMatC= 1.30D-08 BMatP= 2.00D-08
 IDIUse=1 WtCom= 1.00D+00 WtEn= 0.00D+00
 Coeff-Com:  0.429D+00 0.571D+00
 Coeff:      0.429D+00 0.571D+00
 Gap=     0.231 Goal=   None    Shift=    0.000
 RMSDP=1.79D-06 MaxDP=3.61D-05 DE=-1.48D-08 OVMax= 7.01D-05

 Cycle   9  Pass 1  IDiag  1:
 E= -212.577302302707     Delta-E=       -0.000000009383 Rises=F Damp=F
 DIIS: error= 6.24D-06 at cycle   3 NSaved=   3.
 NSaved= 3 IEnMin= 3 EnMin= -212.577302302707     IErMin= 3 ErrMin= 6.24D-06
 ErrMax= 6.24D-06  0.00D+00 EMaxC= 1.00D-01 BMatC= 4.68D-09 BMatP= 1.30D-08
 IDIUse=1 WtCom= 1.00D+00 WtEn= 0.00D+00
 Coeff-Com:  0.695D-01 0.365D+00 0.565D+00
 Coeff:      0.695D-01 0.365D+00 0.565D+00
 Gap=     0.231 Goal=   None    Shift=    0.000
 RMSDP=7.72D-07 MaxDP=2.07D-05 DE=-9.38D-09 OVMax= 3.82D-05

 Cycle  10  Pass 1  IDiag  1:
 E= -212.577302306391     Delta-E=       -0.000000003684 Rises=F Damp=F
 DIIS: error= 2.21D-06 at cycle   4 NSaved=   4.
 NSaved= 4 IEnMin= 4 EnMin= -212.577302306391     IErMin= 4 ErrMin= 2.21D-06
 ErrMax= 2.21D-06  0.00D+00 EMaxC= 1.00D-01 BMatC= 7.74D-10 BMatP= 4.68D-09
 IDIUse=1 WtCom= 1.00D+00 WtEn= 0.00D+00
 Coeff-Com: -0.164D-01 0.162D+00 0.359D+00 0.495D+00
 Coeff:     -0.164D-01 0.162D+00 0.359D+00 0.495D+00
 Gap=     0.231 Goal=   None    Shift=    0.000
 RMSDP=3.14D-07 MaxDP=7.33D-06 DE=-3.68D-09 OVMax= 1.08D-05

 Cycle  11  Pass 1  IDiag  1:
 E= -212.577302307058     Delta-E=       -0.000000000667 Rises=F Damp=F
 DIIS: error= 2.88D-07 at cycle   5 NSaved=   5.
 NSaved= 5 IEnMin= 5 EnMin= -212.577302307058     IErMin= 5 ErrMin= 2.88D-07
[...]
    A8        1.86198   0.00000  -0.00005   0.00001  -0.00004   1.86194
    A9        1.88814   0.00000   0.00000   0.00001   0.00002   1.88815
   A10        1.89126   0.00000  -0.00003  -0.00001  -0.00004   1.89121
   A11        1.89060   0.00000   0.00002  -0.00001   0.00001   1.89061
   A12        1.99784   0.00000   0.00004  -0.00002   0.00002   1.99786
   A13        1.83764   0.00000  -0.00004   0.00001  -0.00003   1.83760
   A14        1.91962   0.00000   0.00000   0.00001   0.00001   1.91963
   A15        1.91973   0.00000   0.00001   0.00002   0.00003   1.91977
   A16        1.94708   0.00000   0.00003   0.00001   0.00004   1.94712
   A17        1.91989   0.00000   0.00001  -0.00001   0.00001   1.91990
   A18        1.92019   0.00000   0.00000   0.00000   0.00000   1.92019
   A19        1.90422   0.00000   0.00000   0.00000   0.00000   1.90422
   A20        1.90423   0.00000   0.00001   0.00001   0.00001   1.90424
   A21        1.86635   0.00000  -0.00005  -0.00001  -0.00006   1.86629
   A22        1.93738   0.00000   0.00001   0.00001   0.00002   1.93740
   A23        1.92435   0.00000   0.00002   0.00000   0.00002   1.92437
   A24        1.93746   0.00000   0.00002   0.00000   0.00002   1.93748
   A25        1.88621   0.00000  -0.00002  -0.00001  -0.00003   1.88618
   A26        1.89057   0.00000  -0.00001   0.00000  -0.00001   1.89056
   A27        1.88622   0.00000  -0.00002  -0.00001  -0.00002   1.88619
   A28        2.07533   0.00001   0.00002   0.00005   0.00007   2.07539
   A29        1.96646   0.00001   0.00007   0.00010   0.00017   1.96662
   A30        1.95438  -0.00001  -0.00004  -0.00006  -0.00010   1.95429
   A31        1.90403   0.00000   0.00002  -0.00002   0.00001   1.90404
   A32        1.87090   0.00000  -0.00003   0.00000  -0.00003   1.87087
   A33        1.88406   0.00000  -0.00001   0.00001   0.00000   1.88406
   A34        1.88084   0.00000  -0.00002  -0.00003  -0.00005   1.88079
    D1       -2.07858   0.00000  -0.00002   0.00053   0.00050  -2.07808
    D2        0.02909   0.00000   0.00003   0.00047   0.00050   0.02959
    D3        2.14043   0.00000   0.00001   0.00052   0.00054   2.14096
    D4        1.06247   0.00000   0.00004   0.00051   0.00056   1.06303
    D5       -3.11304   0.00000   0.00010   0.00046   0.00056  -3.11248
    D6       -1.00170   0.00000   0.00008   0.00051   0.00059  -1.00111
    D7       -0.99418   0.00000  -0.00022  -0.00013  -0.00035  -0.99453
    D8        0.99095   0.00000  -0.00028  -0.00013  -0.00040   0.99055
    D9        3.13980   0.00000  -0.00022  -0.00012  -0.00034   3.13946
   D10        2.14792   0.00000  -0.00029  -0.00011  -0.00040   2.14752
   D11       -2.15013   0.00000  -0.00034  -0.00011  -0.00046  -2.15059
   D12       -0.00128   0.00000  -0.00029  -0.00011  -0.00039  -0.00167
   D13        0.00092   0.00000   0.00000  -0.00003  -0.00002   0.00090
   D14       -3.14124   0.00000   0.00008  -0.00004   0.00003  -3.14120
   D15       -3.14026   0.00000   0.00011  -0.00002   0.00009  -3.14017
   D16        1.02726   0.00000   0.00009  -0.00003   0.00006   1.02732
   D17       -1.02437   0.00000   0.00014  -0.00001   0.00013  -1.02424
   D18        1.00908   0.00000   0.00013   0.00000   0.00013   1.00921
   D19       -1.10658   0.00000   0.00011  -0.00001   0.00010  -1.10648
   D20        3.12497   0.00000   0.00016   0.00001   0.00017   3.12514
   D21       -1.00720   0.00000   0.00018  -0.00003   0.00014  -1.00705
   D22       -3.12286   0.00000   0.00015  -0.00004   0.00012  -3.12275
   D23        1.10869   0.00000   0.00020  -0.00002   0.00018   1.10888
   D24        1.05291   0.00000  -0.00001   0.00004   0.00003   1.05294
   D25       -3.14063   0.00000  -0.00001   0.00004   0.00003  -3.14060
   D26       -1.05092   0.00000  -0.00002   0.00004   0.00002  -1.05089
   D27       -3.10552   0.00000   0.00002   0.00004   0.00006  -3.10546
   D28       -1.01587   0.00000   0.00002   0.00004   0.00006  -1.01581
   D29        1.07384   0.00000   0.00002   0.00004   0.00005   1.07389
   D30       -1.07223   0.00000  -0.00003   0.00003   0.00000  -1.07223
   D31        1.01741   0.00000  -0.00004   0.00003   0.00000   1.01741
   D32        3.10713   0.00000  -0.00004   0.00003  -0.00001   3.10712
   D33       -0.99050   0.00000   0.00044   0.00077   0.00121  -0.98929
   D34        1.12019   0.00001   0.00042   0.00080   0.00122   1.12141
   D35       -3.08257   0.00000   0.00039   0.00071   0.00110  -3.08146
         Item               Value     Threshold  Converged?
 Maximum Force            0.000010     0.000450     YES
 RMS     Force            0.000003     0.000300     YES
 Maximum Displacement     0.001675     0.001800     YES
 RMS     Displacement     0.000441     0.001200     YES
 Predicted change in Energy=-1.228458D-08
 Optimization completed.
    -- Stationary point found.
                           ----------------------------
                           !   Optimized Parameters   !
                           ! (Angstroms and Degrees)  !
 --------------------------                            --------------------------
 ! Name  Definition              Value          Derivative Info.                !
 --------------------------------------------------------------------------------
 ! R1    R(1,2)                  1.5227         -DE/DX =    0.0                 !
 ! R2    R(1,6)                  1.522          -DE/DX =    0.0                 !
 ! R3    R(1,14)                 1.276          -DE/DX =    0.0                 !
 ! R4    R(2,3)                  1.0977         -DE/DX =    0.0                 !
 ! R5    R(2,4)                  1.0934         -DE/DX =    0.0                 !
 ! R6    R(2,5)                  1.0974         -DE/DX =    0.0                 !
 ! R7    R(6,7)                  1.1007         -DE/DX =    0.0                 !
 ! R8    R(6,8)                  1.1008         -DE/DX =    0.0                 !
 ! R9    R(6,9)                  1.5238         -DE/DX =    0.0                 !
 ! R10   R(9,10)                 1.5204         -DE/DX =    0.0                 !
 ! R11   R(9,19)                 1.0965         -DE/DX =    0.0                 !
 ! R12   R(9,20)                 1.0965         -DE/DX =    0.0                 !
 ! R13   R(10,11)                1.0947         -DE/DX =    0.0                 !
 ! R14   R(10,12)                1.0945         -DE/DX =    0.0                 !
 ! R15   R(10,13)                1.0947         -DE/DX =    0.0                 !
 ! R16   R(14,15)                1.4568         -DE/DX =    0.0                 !
 ! R17   R(15,16)                1.1006         -DE/DX =    0.0                 !
 ! R18   R(15,17)                1.1005         -DE/DX =    0.0                 !
 ! R19   R(15,18)                1.0938         -DE/DX =    0.0                 !
 ! A1    A(2,1,6)              114.6459         -DE/DX =    0.0                 !
 ! A2    A(2,1,14)             124.4229         -DE/DX =    0.0                 !
 ! A3    A(6,1,14)             120.9312         -DE/DX =    0.0                 !
 ! A4    A(1,2,3)              110.821          -DE/DX =    0.0                 !
 ! A5    A(1,2,4)              112.0469         -DE/DX =    0.0                 !
 ! A6    A(1,2,5)              110.8605         -DE/DX =    0.0                 !
 ! A7    A(3,2,4)              108.0395         -DE/DX =    0.0                 !
 ! A8    A(3,2,5)              106.6835         -DE/DX =    0.0                 !
 ! A9    A(4,2,5)              108.1823         -DE/DX =    0.0                 !
 ! A10   A(1,6,7)              108.3612         -DE/DX =    0.0                 !
 ! A11   A(1,6,8)              108.3234         -DE/DX =    0.0                 !
 ! A12   A(1,6,9)              114.4679         -DE/DX =    0.0                 !
 ! A13   A(7,6,8)              105.2888         -DE/DX =    0.0                 !
 ! A14   A(7,6,9)              109.9859         -DE/DX =    0.0                 !
 ! A15   A(8,6,9)              109.9926         -DE/DX =    0.0                 !
 ! A16   A(6,9,10)             111.5594         -DE/DX =    0.0                 !
 ! A17   A(6,9,19)             110.0016         -DE/DX =    0.0                 !
 ! A18   A(6,9,20)             110.0188         -DE/DX =    0.0                 !
 ! A19   A(10,9,19)            109.1036         -DE/DX =    0.0                 !
 ! A20   A(10,9,20)            109.1044         -DE/DX =    0.0                 !
 ! A21   A(19,9,20)            106.9341         -DE/DX =    0.0                 !
 ! A22   A(9,10,11)            111.0035         -DE/DX =    0.0                 !
 ! A23   A(9,10,12)            110.257          -DE/DX =    0.0                 !
 ! A24   A(9,10,13)            111.0082         -DE/DX =    0.0                 !
 ! A25   A(11,10,12)           108.0716         -DE/DX =    0.0                 !
 ! A26   A(11,10,13)           108.3217         -DE/DX =    0.0                 !
 ! A27   A(12,10,13)           108.0722         -DE/DX =    0.0                 !
 ! A28   A(1,14,15)            118.9075         -DE/DX =    0.0                 !
 ! A29   A(14,15,16)           112.6696         -DE/DX =    0.0                 !
 ! A30   A(14,15,17)           111.9778         -DE/DX =    0.0                 !
 ! A31   A(14,15,18)           109.093          -DE/DX =    0.0                 !
 ! A32   A(16,15,17)           107.1946         -DE/DX =    0.0                 !
 ! A33   A(16,15,18)           107.9485         -DE/DX =    0.0                 !
 ! A34   A(17,15,18)           107.764          -DE/DX =    0.0                 !
 ! D1    D(6,1,2,3)           -119.0941         -DE/DX =    0.0                 !
 ! D2    D(6,1,2,4)              1.6665         -DE/DX =    0.0                 !
 ! D3    D(6,1,2,5)            122.6373         -DE/DX =    0.0                 !
 ! D4    D(14,1,2,3)            60.8753         -DE/DX =    0.0                 !
 ! D5    D(14,1,2,4)          -178.364          -DE/DX =    0.0                 !
 ! D6    D(14,1,2,5)           -57.3932         -DE/DX =    0.0                 !
 ! D7    D(2,1,6,7)            -56.9626         -DE/DX =    0.0                 !
 ! D8    D(2,1,6,8)             56.7773         -DE/DX =    0.0                 !
 ! D9    D(2,1,6,9)            179.8974         -DE/DX =    0.0                 !
 ! D10   D(14,1,6,7)           123.0668         -DE/DX =    0.0                 !
 ! D11   D(14,1,6,8)          -123.1933         -DE/DX =    0.0                 !
 ! D12   D(14,1,6,9)            -0.0732         -DE/DX =    0.0                 !
 ! D13   D(2,1,14,15)            0.0528         -DE/DX =    0.0                 !
 ! D14   D(6,1,14,15)         -179.9796         -DE/DX =    0.0                 !
 ! D15   D(1,6,9,10)          -179.9237         -DE/DX =    0.0                 !
 ! D16   D(1,6,9,19)            58.8576         -DE/DX =    0.0                 !
 ! D17   D(1,6,9,20)           -58.6923         -DE/DX =    0.0                 !
 ! D18   D(7,6,9,10)            57.8163         -DE/DX =    0.0                 !
 ! D19   D(7,6,9,19)           -63.4025         -DE/DX =    0.0                 !
 ! D20   D(7,6,9,20)           179.0476         -DE/DX =    0.0                 !
 ! D21   D(8,6,9,10)           -57.7081         -DE/DX =    0.0                 !
 ! D22   D(8,6,9,19)          -178.9268         -DE/DX =    0.0                 !
 ! D23   D(8,6,9,20)            63.5233         -DE/DX =    0.0                 !
 ! D24   D(6,9,10,11)           60.3272         -DE/DX =    0.0                 !
 ! D25   D(6,9,10,12)         -179.9448         -DE/DX =    0.0                 !
 ! D26   D(6,9,10,13)          -60.213          -DE/DX =    0.0                 !
 ! D27   D(19,9,10,11)        -177.9332         -DE/DX =    0.0                 !
 ! D28   D(19,9,10,12)         -58.2052         -DE/DX =    0.0                 !
 ! D29   D(19,9,10,13)          61.5266         -DE/DX =    0.0                 !
 ! D30   D(20,9,10,11)         -61.4345         -DE/DX =    0.0                 !
 ! D31   D(20,9,10,12)          58.2935         -DE/DX =    0.0                 !
 ! D32   D(20,9,10,13)         178.0253         -DE/DX =    0.0                 !
 ! D33   D(1,14,15,16)         -56.7513         -DE/DX =    0.0                 !
 ! D34   D(1,14,15,17)          64.1822         -DE/DX =    0.0                 !
 ! D35   D(1,14,15,18)        -176.6181         -DE/DX =    0.0                 !
 --------------------------------------------------------------------------------
 Lowest energy point so far.  Saving SCF results.
 GradGradGradGradGradGradGradGradGradGradGradGradGradGradGradGradGradGrad

 Largest change from initial coordinates is atom   18       0.234 Angstoms.
 Leave Link  103 at Tue Feb  7 16:49:49 2017, MaxMem=  1048576000 cpu:         0.1
 (Enter /mnt/data/applications/G09/g09/l202.exe)
                          Input orientation:                          
 ---------------------------------------------------------------------
 Center     Atomic      Atomic             Coordinates (Angstroms)
 Number     Number       Type             X           Y           Z
 ---------------------------------------------------------------------
      1          6    10061002       -2.197502    0.549935    0.004237
      2          6    10061003       -3.718547    0.490791    0.042900
      3          1    10011000       -4.153282    1.101473   -0.759012
      4          1    10011000       -4.092524   -0.530557   -0.068663
      5          1    10011000       -4.101379    0.894208    0.988910
      6          6    10061003       -1.515595   -0.792431   -0.218245
      7          1    10011000       -1.842069   -1.482780    0.574456
      8          1    10011000       -1.899089   -1.224297   -1.155325
      9          6    10061003        0.006285   -0.728201   -0.258686
     10          6    10061003        0.617620   -2.101702   -0.485394
     11          1    10011000        0.283569   -2.527666   -1.436872
     12          1    10011000        1.709578   -2.031146   -0.509729
     13          1    10011000        0.339748   -2.792286    0.317242
     14          7    10071002       -1.513435    1.618168    0.142386
     15          6    10061003       -2.211686    2.879166    0.353670
     16          1    10011000       -2.930230    3.105761   -0.448589
     17          1    10011000       -2.769855    2.887006    1.302125
     18          1    10011000       -1.480084    3.691501    0.390269
     19          1    10011000        0.389398   -0.315756    0.682269
     20          1    10011000        0.332365   -0.053673   -1.059275
 ---------------------------------------------------------------------
                    Distance matrix (angstroms):
                    1          2          3          4          5
     1  C    0.000000
     2  C    1.522686   0.000000
     3  H    2.170672   1.097721   0.000000
     4  H    2.182633   1.093369   1.773075   0.000000
     5  H    2.170910   1.097378   1.760933   1.774399   0.000000
     6  C    1.521987   2.562783   3.291914   2.594517   3.314854
     7  H    2.140891   2.774654   3.714594   2.526831   3.305499
     8  H    2.140452   2.772670   3.263075   2.544261   3.733080
     9  C    2.561140   3.930811   4.571655   4.107969   4.589293
    10  C    3.898184   5.079613   5.752974   4.982732   5.780831
    11  H    4.207628   5.226637   5.771983   5.001062   6.068064
    12  H    4.710776   6.010833   6.651960   6.009217   6.676139
    13  H    4.207856   5.227200   6.042102   4.990929   5.810765
    14  N    1.275991   2.478587   2.836950   3.363519   2.817476
    15  C    2.355339   2.841046   2.857980   3.916903   2.813277
    16  H    2.697070   2.775080   2.368415   3.836414   2.885993
    17  H    2.733862   2.868364   3.057824   3.912576   2.417086
    18  H    3.245480   3.921215   3.895521   4.986104   3.880000
    19  H    2.810907   4.234917   4.972099   4.549468   4.661021
    20  H    2.809916   4.233334   4.641718   4.559426   4.975100
                    6          7          8          9         10
     6  C    0.000000
     7  H    1.100700   0.000000
     8  H    1.100770   1.749916   0.000000
     9  C    1.523771   2.163314   2.163452   0.000000
    10  C    2.517174   2.748894   2.748176   1.520405   0.000000
    11  H    2.780841   3.107339   2.557740   2.168658   1.094689
    12  H    3.467148   3.753712   3.753701   2.159142   1.094505
    13  H    2.780011   2.557594   3.104744   2.168718   1.094689
    14  N    2.437427   3.148105   3.148395   2.824156   4.332776
    15  C    3.780510   4.383143   4.383286   4.278724   5.789478
    16  H    4.153330   4.825497   4.506898   4.833058   6.301291
    17  H    4.174081   4.526071   4.868276   4.817968   6.289470
    18  H    4.525173   5.190196   5.170057   4.707887   6.223211
    19  H    2.160357   2.520518   3.072356   1.096486   2.145956
    20  H    2.160567   3.072391   2.521700   1.096476   2.145958
                   11         12         13         14         15
    11  H    0.000000
    12  H    1.771899   0.000000
    13  H    1.774851   1.771906   0.000000
    14  N    4.786566   4.912287   4.787168   0.000000
    15  C    6.218213   6.342944   6.219045   1.456816   0.000000
    16  H    6.560541   6.922382   6.787209   2.137636   1.100577
    17  H    6.792950   6.894662   6.549350   2.129210   1.100536
    18  H    6.717659   6.613065   6.734732   2.088364   1.093832
    19  H    3.065045   2.471092   2.503780   2.766281   4.132934
    20  H    2.503118   2.471663   3.065103   2.765144   4.131605
                   16         17         18         19         20
    16  H    0.000000
    17  H    1.771602   0.000000
    18  H    1.774739   1.772626   0.000000
    19  H    4.899546   4.541232   4.431516   0.000000
    20  H    4.582519   4.883398   4.405959   1.762077   0.000000
 Symmetry turned off by external request.
 Stoichiometry    C6H13N
 Framework group  C1[X(C6H13N)]
 Deg. of freedom    54
 Full point group                 C1      NOp   1
 Rotational constants (GHZ):      5.1471960      1.3161051      1.0833341
 Leave Link  202 at Tue Feb  7 16:49:49 2017, MaxMem=  1048576000 cpu:         0.0
 (Enter /mnt/data/applications/G09/g09/l9999.exe)
 1\1\GINC-KIMIK2095\FOpt\ONIOM(B3LYP/6-31G(d):External='./sictwo_files/
 sictwo_g09d01')\Mixed\C6H13N1\IFUNES\07-Feb-2017\0\\#p opt=nomicro oni
 om(B3LYP/6-31G*:external="./sictwo_files/sictwo_g09d01") geom=connecti
 vity nosymm scf(maxcyc=100)\\ONIOM(QM:MM) OPT FREQ with SICTWO V1.0\\0
 ,1\C,-2.1975019462,0.5499353316,0.0042368271\C,-3.7185472664,0.4907908
 652,0.0429004792\H,-4.1532820777,1.1014728092,-0.7590124287\H,-4.09252
 3705,-0.5305570074,-0.068662818\H,-4.1013790094,0.8942079604,0.9889096
 779\C,-1.5155946892,-0.7924309764,-0.2182449642\H,-1.8420688582,-1.482
 7799876,0.5744555422\H,-1.8990889298,-1.2242970258,-1.1553247912\C,0.0
 062851355,-0.7282013752,-0.2586856696\C,0.6176204708,-2.1017024164,-0.
 4853942218\H,0.2835686222,-2.5276655826,-1.4368715429\H,1.709577749,-2
 .0311462984,-0.5097292216\H,0.3397477309,-2.7922864745,0.3172421118\N,
 -1.5134354429,1.6181683614,0.1423857252\C,-2.2116863858,2.879166308,0.
 3536703799\H,-2.9302304374,3.1057605124,-0.4485887261\H,-2.7698552353,
 2.8870062972,1.3021249442\H,-1.4800840594,3.6915006428,0.3902693054\H,
 0.3893978821,-0.3157562047,0.6822688396\H,0.3323646023,-0.0536730393,-
 1.0592753083\\Version=EM64L-G09RevD.01\HF=0.0263945\RMSD=3.284e-09\RMS
 F=5.680e-06\Dipole=-0.7490686,-0.2276237,-0.0081857\PG=C01 [X(C6H13N1)
 ]\\@


 KNOWLEDGE IS OF TWO KINDS:  WE KNOW A SUBJECT OURSELVES OR WE KNOW 
 WHERE WE CAN FIND INFORMATION UPON IT.

                                    -- SAMUEL JOHNSON
 Job cpu time:       0 days  0 hours 13 minutes 43.2 seconds.
 File lengths (MBytes):  RWF=      7 Int=      0 D2E=      0 Chk=      3 Scr=      1
 Normal termination of Gaussian 09 at Tue Feb  7 16:49:50 2017.
