
     ######################################################################
   ##########################################################################
  ###                                                                      ###
 ###            TINKER  ---  Software Tools for Molecular Design            ###
 ##                                                                          ##
 ##                        Version 7.1  February 2015                        ##
 ##                                                                          ##
 ##               Copyright (c)  Jay William Ponder  1990-2015               ##
 ###                           All Rights Reserved                          ###
  ###                                                                      ###
   ##########################################################################
     ######################################################################


 Total Potential Energy :                  0.1658 Kcal/mole

 Potential Energy Breakdown by Individual Components :

  Energy      EB          EA          EBA         EUB         EAA         EOPB
  Terms       EOPD        EID         EIT         ET          EPT         EBT
              EAT         ETT         EV          EC          ECD         ED
              EM          EP          ER          ES          ELF         EG
              EX

            0.0231      0.1301      0.0126      0.0000      0.0000      0.0000
            0.0000      0.0000      0.0000      0.0000      0.0000      0.0000
            0.0000      0.0000      0.0000      0.0000      0.0000      0.0000
            0.0000      0.0000      0.0000      0.0000      0.0000      0.0000
            0.0000

 Cartesian Gradient Breakdown by Individual Components :

  Atom      d EB        d EA        d EBA       d EUB       d EAA       d EOPB
  Axis      d EOPD      d EID       d EIT       d ET        d EPT       d EBT
  Type      d EAT       d ETT       d EV        d EC        d ECD       d ED
            d EM        d EP        d ER        d ES        d ELF       d EG
            d EX

     1     -1.0869      4.1208     -0.6436      0.0000      0.0000      0.0000
     X      0.0000      0.0000      0.0000      0.0000      0.0000      0.0000
 Anlyt      0.0000      0.0000      0.0000      0.0000      0.0000      0.0000
            0.0000      0.0000      0.0000      0.0000      0.0000      0.0000
            0.0000

     1     -1.3100      3.5542     -0.5330      0.0000      0.0000      0.0000
     Y      0.0000      0.0000      0.0000      0.0000      0.0000      0.0000
 Anlyt      0.0000      0.0000      0.0000      0.0000      0.0000      0.0000
            0.0000      0.0000      0.0000      0.0000      0.0000      0.0000
            0.0000

     1     -2.2736      6.1570     -0.9230      0.0000      0.0000      0.0000
     Z      0.0000      0.0000      0.0000      0.0000      0.0000      0.0000
 Anlyt      0.0000      0.0000      0.0000      0.0000      0.0000      0.0000
            0.0000      0.0000      0.0000      0.0000      0.0000      0.0000
            0.0000

     2      0.5490     -1.7003      0.0504      0.0000      0.0000      0.0000
     X      0.0000      0.0000      0.0000      0.0000      0.0000      0.0000
 Anlyt      0.0000      0.0000      0.0000      0.0000      0.0000      0.0000
            0.0000      0.0000      0.0000      0.0000      0.0000      0.0000
            0.0000

     2     -1.6900     -0.4854     -0.2653      0.0000      0.0000      0.0000
     Y      0.0000      0.0000      0.0000      0.0000      0.0000      0.0000
 Anlyt      0.0000      0.0000      0.0000      0.0000      0.0000      0.0000
            0.0000      0.0000      0.0000      0.0000      0.0000      0.0000
            0.0000

     2     -0.0441     -2.5640     -0.0606      0.0000      0.0000      0.0000
     Z      0.0000      0.0000      0.0000      0.0000      0.0000      0.0000
 Anlyt      0.0000      0.0000      0.0000      0.0000      0.0000      0.0000
            0.0000      0.0000      0.0000      0.0000      0.0000      0.0000
            0.0000

     3      0.5476     -1.6981      0.0501      0.0000      0.0000      0.0000
     X      0.0000      0.0000      0.0000      0.0000      0.0000      0.0000
 Anlyt      0.0000      0.0000      0.0000      0.0000      0.0000      0.0000
            0.0000      0.0000      0.0000      0.0000      0.0000      0.0000
            0.0000

     3      0.8042     -1.9770      0.0798      0.0000      0.0000      0.0000
     Y      0.0000      0.0000      0.0000      0.0000      0.0000      0.0000
 Anlyt      0.0000      0.0000      0.0000      0.0000      0.0000      0.0000
            0.0000      0.0000      0.0000      0.0000      0.0000      0.0000
            0.0000

     3     -1.4828     -1.6993     -0.2595      0.0000      0.0000      0.0000
     Z      0.0000      0.0000      0.0000      0.0000      0.0000      0.0000
 Anlyt      0.0000      0.0000      0.0000      0.0000      0.0000      0.0000
            0.0000      0.0000      0.0000      0.0000      0.0000      0.0000
            0.0000

     4     -1.6536     -0.0149     -0.0174      0.0000      0.0000      0.0000
     X      0.0000      0.0000      0.0000      0.0000      0.0000      0.0000
 Anlyt      0.0000      0.0000      0.0000      0.0000      0.0000      0.0000
            0.0000      0.0000      0.0000      0.0000      0.0000      0.0000
            0.0000

     4      0.0049     -1.2268     -0.0312      0.0000      0.0000      0.0000
     Y      0.0000      0.0000      0.0000      0.0000      0.0000      0.0000
 Anlyt      0.0000      0.0000      0.0000      0.0000      0.0000      0.0000
            0.0000      0.0000      0.0000      0.0000      0.0000      0.0000
            0.0000

     4      0.0087     -2.1224     -0.0541      0.0000      0.0000      0.0000
     Z      0.0000      0.0000      0.0000      0.0000      0.0000      0.0000
 Anlyt      0.0000      0.0000      0.0000      0.0000      0.0000      0.0000
            0.0000      0.0000      0.0000      0.0000      0.0000      0.0000
            0.0000

     5      1.6439     -0.7075      0.5606      0.0000      0.0000      0.0000
     X      0.0000      0.0000      0.0000      0.0000      0.0000      0.0000
 Anlyt      0.0000      0.0000      0.0000      0.0000      0.0000      0.0000
            0.0000      0.0000      0.0000      0.0000      0.0000      0.0000
            0.0000

     5      2.1909      0.1351      0.7496      0.0000      0.0000      0.0000
     Y      0.0000      0.0000      0.0000      0.0000      0.0000      0.0000
 Anlyt      0.0000      0.0000      0.0000      0.0000      0.0000      0.0000
            0.0000      0.0000      0.0000      0.0000      0.0000      0.0000
            0.0000

     5      3.7918      0.2287      1.2972      0.0000      0.0000      0.0000
     Z      0.0000      0.0000      0.0000      0.0000      0.0000      0.0000
 Anlyt      0.0000      0.0000      0.0000      0.0000      0.0000      0.0000
            0.0000      0.0000      0.0000      0.0000      0.0000      0.0000
            0.0000

 Cartesian Gradient Breakdown over Individual Atoms :

  Type      Atom              dE/dX       dE/dY       dE/dZ          Norm

 Anlyt         1             2.3903      1.7112      2.9605        4.1721
 Anlyt         2            -1.1009     -2.4407     -2.6687        3.7803
 Anlyt         3            -1.1004     -1.0930     -3.4416        3.7750
 Anlyt         4            -1.6859     -1.2531     -2.1678        3.0186
 Anlyt         5             1.4969      3.0755      5.3176        6.3227

 Total Gradient Norm and RMS Gradient per Atom :

 Anlyt      Total Gradient Norm Value                9.7486

 Anlyt      RMS Gradient over All Atoms              4.3597
