
     ######################################################################
   ##########################################################################
  ###                                                                      ###
 ###            TINKER  ---  Software Tools for Molecular Design            ###
 ##                                                                          ##
 ##                        Version 7.1  February 2015                        ##
 ##                                                                          ##
 ##               Copyright (c)  Jay William Ponder  1990-2015               ##
 ###                           All Rights Reserved                          ###
  ###                                                                      ###
   ##########################################################################
     ######################################################################


 Total Potential Energy :                  2.3582 Kcal/mole

 Potential Energy Breakdown by Individual Components :

  Energy      EB          EA          EBA         EUB         EAA         EOPB
  Terms       EOPD        EID         EIT         ET          EPT         EBT
              EAT         ETT         EV          EC          ECD         ED
              EM          EP          ER          ES          ELF         EG
              EX

            0.5304      0.7885      0.0665      0.0000      0.0000      0.0000
            0.0000      0.0000      0.0000     -0.3002      0.0000      0.0000
            0.0000      0.0000      1.2731      0.0000      0.0000      0.0000
            0.0000      0.0000      0.0000      0.0000      0.0000      0.0000
            0.0000

 Cartesian Gradient Breakdown by Individual Components :

  Atom      d EB        d EA        d EBA       d EUB       d EAA       d EOPB
  Axis      d EOPD      d EID       d EIT       d ET        d EPT       d EBT
  Type      d EAT       d ETT       d EV        d EC        d ECD       d ED
            d EM        d EP        d ER        d ES        d ELF       d EG
            d EX

     1     13.9151     -0.4718      3.8767      0.0000      0.0000     -0.0007
     X      0.0000      0.0000      0.0000     -0.3018      0.0000      0.0000
 Anlyt      0.0000      0.0000      0.0000      0.0000      0.0000      0.0000
            0.0000      0.0000      0.0000      0.0000      0.0000      0.0000
            0.0000

     1     23.3301     -0.7671      6.4869      0.0000      0.0000     -0.0088
     Y      0.0000      0.0000      0.0000     -0.4847      0.0000      0.0000
 Anlyt      0.0000      0.0000      0.0000      0.0000      0.0000      0.0000
            0.0000      0.0000      0.0000      0.0000      0.0000      0.0000
            0.0000

     1      9.1573     -0.3261      2.5465      0.0000      0.0000      0.0234
     Z      0.0000      0.0000      0.0000     -0.2629      0.0000      0.0000
 Anlyt      0.0000      0.0000      0.0000      0.0000      0.0000      0.0000
            0.0000      0.0000      0.0000      0.0000      0.0000      0.0000
            0.0000

     2     -5.8378      0.0084     -5.5627      0.0000      0.0000      0.0003
     X      0.0000      0.0000      0.0000     -0.0005      0.0000      0.0000
 Anlyt      0.0000      0.0000     -1.2357      0.0000      0.0000      0.0000
            0.0000      0.0000      0.0000      0.0000      0.0000      0.0000
            0.0000

     2     -9.7766     -0.0040     -9.3148      0.0000      0.0000      0.0035
     Y      0.0000      0.0000      0.0000     -0.0065      0.0000      0.0000
 Anlyt      0.0000      0.0000     -2.0732      0.0000      0.0000      0.0000
            0.0000      0.0000      0.0000      0.0000      0.0000      0.0000
            0.0000

     2     -3.8363     -0.0025     -3.6551      0.0000      0.0000     -0.0093
     Z      0.0000      0.0000      0.0000      0.0174      0.0000      0.0000
 Anlyt      0.0000      0.0000     -0.8104      0.0000      0.0000      0.0000
            0.0000      0.0000      0.0000      0.0000      0.0000      0.0000
            0.0000

     3    -14.1768      8.2341      2.0743      0.0000      0.0000      0.0002
     X      0.0000      0.0000      0.0000     -0.0857      0.0000      0.0000
 Anlyt      0.0000      0.0000      1.5721      0.0000      0.0000      0.0000
            0.0000      0.0000      0.0000      0.0000      0.0000      0.0000
            0.0000

     3      2.9580      4.4842      1.2314      0.0000      0.0000      0.0026
     Y      0.0000      0.0000      0.0000      1.6920      0.0000      0.0000
 Anlyt      0.0000      0.0000     -1.3794      0.0000      0.0000      0.0000
            0.0000      0.0000      0.0000      0.0000      0.0000      0.0000
            0.0000

     3      0.7271      1.9546      0.5149      0.0000      0.0000     -0.0070
     Z      0.0000      0.0000      0.0000      0.6676      0.0000      0.0000
 Anlyt      0.0000      0.0000     -0.4694      0.0000      0.0000      0.0000
            0.0000      0.0000      0.0000      0.0000      0.0000      0.0000
            0.0000

     4     -0.9125     -3.6282     -0.6087      0.0000      0.0000      0.0000
     X      0.0000      0.0000      0.0000      0.0219      0.0000      0.0000
 Anlyt      0.0000      0.0000      1.1667      0.0000      0.0000      0.0000
            0.0000      0.0000      0.0000      0.0000      0.0000      0.0000
            0.0000

     4     -0.5383     -2.6875      0.0483      0.0000      0.0000      0.0000
     Y      0.0000      0.0000      0.0000     -0.8302      0.0000      0.0000
 Anlyt      0.0000      0.0000     -0.4156      0.0000      0.0000      0.0000
            0.0000      0.0000      0.0000      0.0000      0.0000      0.0000
            0.0000

     4     -2.7930      1.7034     -0.0575      0.0000      0.0000      0.0000
     Z      0.0000      0.0000      0.0000      0.1529      0.0000      0.0000
 Anlyt      0.0000      0.0000      0.2520      0.0000      0.0000      0.0000
            0.0000      0.0000      0.0000      0.0000      0.0000      0.0000
            0.0000

     5     -1.0331     -3.4790     -0.6135      0.0000      0.0000      0.0000
     X      0.0000      0.0000      0.0000      0.0459      0.0000      0.0000
 Anlyt      0.0000      0.0000      1.1939      0.0000      0.0000      0.0000
            0.0000      0.0000      0.0000      0.0000      0.0000      0.0000
            0.0000

     5     -2.2077     -0.8383      0.0059      0.0000      0.0000      0.0000
     Y      0.0000      0.0000      0.0000     -0.5276      0.0000      0.0000
 Anlyt      0.0000      0.0000     -0.1722      0.0000      0.0000      0.0000
            0.0000      0.0000      0.0000      0.0000      0.0000      0.0000
            0.0000

     5      1.6773     -3.2463      0.0479      0.0000      0.0000      0.0000
     Z      0.0000      0.0000      0.0000     -0.6662      0.0000      0.0000
 Anlyt      0.0000      0.0000     -0.4050      0.0000      0.0000      0.0000
            0.0000      0.0000      0.0000      0.0000      0.0000      0.0000
            0.0000

     6      0.3311     -1.1533     -0.8058      0.0000      0.0000      0.0000
     X      0.0000      0.0000      0.0000      0.0001      0.0000      0.0000
 Anlyt      0.0000      0.0000      2.1799      0.0000      0.0000      0.0000
            0.0000      0.0000      0.0000      0.0000      0.0000      0.0000
            0.0000

     6     -0.7508     -0.4309      0.5506      0.0000      0.0000      0.0000
     Y      0.0000      0.0000      0.0000      0.0011      0.0000      0.0000
 Anlyt      0.0000      0.0000      0.0886      0.0000      0.0000      0.0000
            0.0000      0.0000      0.0000      0.0000      0.0000      0.0000
            0.0000

     6     -0.2731     -0.2135      0.1845      0.0000      0.0000      0.0000
     Z      0.0000      0.0000      0.0000     -0.0030      0.0000      0.0000
 Anlyt      0.0000      0.0000      0.0954      0.0000      0.0000      0.0000
            0.0000      0.0000      0.0000      0.0000      0.0000      0.0000
            0.0000

     7     10.0631     -0.2064      0.0383      0.0000      0.0000      0.0002
     X      0.0000      0.0000      0.0000      1.5877      0.0000      0.0000
 Anlyt      0.0000      0.0000     -2.0670      0.0000      0.0000      0.0000
            0.0000      0.0000      0.0000      0.0000      0.0000      0.0000
            0.0000

     7     -9.9022      8.9361      2.3179      0.0000      0.0000      0.0026
     Y      0.0000      0.0000      0.0000      0.8002      0.0000      0.0000
 Anlyt      0.0000      0.0000      0.5509      0.0000      0.0000      0.0000
            0.0000      0.0000      0.0000      0.0000      0.0000      0.0000
            0.0000

     7     -3.3808      3.4272      0.8546      0.0000      0.0000     -0.0070
     Z      0.0000      0.0000      0.0000      0.3937      0.0000      0.0000
 Anlyt      0.0000      0.0000      0.1479      0.0000      0.0000      0.0000
            0.0000      0.0000      0.0000      0.0000      0.0000      0.0000
            0.0000

     8     -0.8120      0.3298      0.3394      0.0000      0.0000      0.0000
     X      0.0000      0.0000      0.0000     -0.6267      0.0000      0.0000
 Anlyt      0.0000      0.0000     -0.8744      0.0000      0.0000      0.0000
            0.0000      0.0000      0.0000      0.0000      0.0000      0.0000
            0.0000

     8     -2.3295     -2.8573     -0.5043      0.0000      0.0000      0.0000
     Y      0.0000      0.0000      0.0000     -0.1723      0.0000      0.0000
 Anlyt      0.0000      0.0000      0.9259      0.0000      0.0000      0.0000
            0.0000      0.0000      0.0000      0.0000      0.0000      0.0000
            0.0000

     8      1.6360     -3.9047     -0.1115      0.0000      0.0000      0.0000
     Z      0.0000      0.0000      0.0000     -0.5563      0.0000      0.0000
 Anlyt      0.0000      0.0000     -0.0533      0.0000      0.0000      0.0000
            0.0000      0.0000      0.0000      0.0000      0.0000      0.0000
            0.0000

     9     -0.6776      0.1648      0.3459      0.0000      0.0000      0.0000
     X      0.0000      0.0000      0.0000     -0.6412      0.0000      0.0000
 Anlyt      0.0000      0.0000     -0.8836      0.0000      0.0000      0.0000
            0.0000      0.0000      0.0000      0.0000      0.0000      0.0000
            0.0000

     9     -0.6598     -4.6941     -0.4571      0.0000      0.0000      0.0000
     Y      0.0000      0.0000      0.0000     -0.4742      0.0000      0.0000
 Anlyt      0.0000      0.0000      0.6707      0.0000      0.0000      0.0000
            0.0000      0.0000      0.0000      0.0000      0.0000      0.0000
            0.0000

     9     -2.8407      1.0509     -0.2166      0.0000      0.0000      0.0000
     Z      0.0000      0.0000      0.0000      0.2631      0.0000      0.0000
 Anlyt      0.0000      0.0000      0.5995      0.0000      0.0000      0.0000
            0.0000      0.0000      0.0000      0.0000      0.0000      0.0000
            0.0000

    10     -0.8595      0.2017      0.9160      0.0000      0.0000      0.0000
     X      0.0000      0.0000      0.0000      0.0002      0.0000      0.0000
 Anlyt      0.0000      0.0000     -1.0520      0.0000      0.0000      0.0000
            0.0000      0.0000      0.0000      0.0000      0.0000      0.0000
            0.0000

    10     -0.1233     -1.1410     -0.3647      0.0000      0.0000      0.0000
     Y      0.0000      0.0000      0.0000      0.0023      0.0000      0.0000
 Anlyt      0.0000      0.0000      1.8043      0.0000      0.0000      0.0000
            0.0000      0.0000      0.0000      0.0000      0.0000      0.0000
            0.0000

    10     -0.0738     -0.4430     -0.1076      0.0000      0.0000      0.0000
     Z      0.0000      0.0000      0.0000     -0.0062      0.0000      0.0000
 Anlyt      0.0000      0.0000      0.6435      0.0000      0.0000      0.0000
            0.0000      0.0000      0.0000      0.0000      0.0000      0.0000
            0.0000

 Cartesian Gradient Breakdown over Individual Atoms :

  Type      Atom              dE/dX       dE/dY       dE/dZ          Norm

 Anlyt         1            17.0174     28.5564     11.1382       35.0588
 Anlyt         2           -12.6281    -21.1717     -8.2962       26.0103
 Anlyt         3            -2.3817      8.9888      3.3876        9.8969
 Anlyt         4            -3.9608     -4.4234     -0.7422        5.9837
 Anlyt         5            -3.8858     -3.7398     -2.5924        5.9838
 Anlyt         6             0.5521     -0.5414     -0.2098        0.8012
 Anlyt         7             9.4160      2.7055      1.4354        9.9016
 Anlyt         8            -1.6439     -4.9375     -2.9898        6.0017
 Anlyt         9            -1.6917     -5.6145     -1.1437        5.9743
 Anlyt        10            -0.7935      0.1776      0.0130        0.8132

 Total Gradient Norm and RMS Gradient per Atom :

 Anlyt      Total Gradient Norm Value               47.3949

 Anlyt      RMS Gradient over All Atoms             14.9876
