
     ######################################################################
   ##########################################################################
  ###                                                                      ###
 ###            TINKER  ---  Software Tools for Molecular Design            ###
 ##                                                                          ##
 ##                        Version 7.1  February 2015                        ##
 ##                                                                          ##
 ##               Copyright (c)  Jay William Ponder  1990-2015               ##
 ###                           All Rights Reserved                          ###
  ###                                                                      ###
   ##########################################################################
     ######################################################################


 Total Potential Energy :                  2.9263 Kcal/mole

 Potential Energy Breakdown by Individual Components :

  Energy      EB          EA          EBA         EUB         EAA         EOPB
  Terms       EOPD        EID         EIT         ET          EPT         EBT
              EAT         ETT         EV          EC          ECD         ED
              EM          EP          ER          ES          ELF         EG
              EX

            0.7726      1.1165     -0.0120      0.0000      0.0000      0.0000
            0.0000      0.0000      0.0000     -0.2495      0.0000      0.0000
            0.0000      0.0000      1.2986      0.0000      0.0000      0.0000
            0.0000      0.0000      0.0000      0.0000      0.0000      0.0000
            0.0000

 Cartesian Gradient Breakdown by Individual Components :

  Atom      d EB        d EA        d EBA       d EUB       d EAA       d EOPB
  Axis      d EOPD      d EID       d EIT       d ET        d EPT       d EBT
  Type      d EAT       d ETT       d EV        d EC        d ECD       d ED
            d EM        d EP        d ER        d ES        d ELF       d EG
            d EX

     1     12.4231      3.7803      1.1370      0.0000      0.0000      0.0000
     X      0.0000      0.0000      0.0000     -0.2782      0.0000      0.0000
 Anlyt      0.0000      0.0000      0.0000      0.0000      0.0000      0.0000
            0.0000      0.0000      0.0000      0.0000      0.0000      0.0000
            0.0000

     1     29.3020     -0.6292      3.2128      0.0000      0.0000      0.0037
     Y      0.0000      0.0000      0.0000     -0.4915      0.0000      0.0000
 Anlyt      0.0000      0.0000      0.0000      0.0000      0.0000      0.0000
            0.0000      0.0000      0.0000      0.0000      0.0000      0.0000
            0.0000

     1      9.8777     -0.2126      1.0837      0.0000      0.0000     -0.0110
     Z      0.0000      0.0000      0.0000     -0.2304      0.0000      0.0000
 Anlyt      0.0000      0.0000      0.0000      0.0000      0.0000      0.0000
            0.0000      0.0000      0.0000      0.0000      0.0000      0.0000
            0.0000

     2     -5.8648     -4.0986     -4.0464      0.0000      0.0000     -0.0000
     X      0.0000      0.0000      0.0000     -0.0001      0.0000      0.0000
 Anlyt      0.0000      0.0000     -1.7314      0.0000      0.0000      0.0000
            0.0000      0.0000      0.0000      0.0000      0.0000      0.0000
            0.0000

     2    -10.8977      1.9869     -7.2062      0.0000      0.0000     -0.0015
     Y      0.0000      0.0000      0.0000     -0.0055      0.0000      0.0000
 Anlyt      0.0000      0.0000     -1.4686      0.0000      0.0000      0.0000
            0.0000      0.0000      0.0000      0.0000      0.0000      0.0000
            0.0000

     2     -3.6799      0.6481     -2.4341      0.0000      0.0000      0.0044
     Z      0.0000      0.0000      0.0000      0.0163      0.0000      0.0000
 Anlyt      0.0000      0.0000     -0.4986      0.0000      0.0000      0.0000
            0.0000      0.0000      0.0000      0.0000      0.0000      0.0000
            0.0000

     3    -15.3402      8.3965      3.4669      0.0000      0.0000     -0.0000
     X      0.0000      0.0000      0.0000     -0.1348      0.0000      0.0000
 Anlyt      0.0000      0.0000      1.9671      0.0000      0.0000      0.0000
            0.0000      0.0000      0.0000      0.0000      0.0000      0.0000
            0.0000

     3      2.4127      2.5888      1.9064      0.0000      0.0000     -0.0011
     Y      0.0000      0.0000      0.0000      1.7121      0.0000      0.0000
 Anlyt      0.0000      0.0000     -1.7203      0.0000      0.0000      0.0000
            0.0000      0.0000      0.0000      0.0000      0.0000      0.0000
            0.0000

     3      0.7385      0.8806      0.6586      0.0000      0.0000      0.0033
     Z      0.0000      0.0000      0.0000      0.5931      0.0000      0.0000
 Anlyt      0.0000      0.0000     -0.5630      0.0000      0.0000      0.0000
            0.0000      0.0000      0.0000      0.0000      0.0000      0.0000
            0.0000

     4     -0.9099     -3.6880     -0.6633      0.0000      0.0000      0.0000
     X      0.0000      0.0000      0.0000      0.0519      0.0000      0.0000
 Anlyt      0.0000      0.0000      1.3129      0.0000      0.0000      0.0000
            0.0000      0.0000      0.0000      0.0000      0.0000      0.0000
            0.0000

     4     -0.6529     -2.6551      0.0179      0.0000      0.0000      0.0000
     Y      0.0000      0.0000      0.0000     -0.8238      0.0000      0.0000
 Anlyt      0.0000      0.0000     -0.4379      0.0000      0.0000      0.0000
            0.0000      0.0000      0.0000      0.0000      0.0000      0.0000
            0.0000

     4     -2.6899      1.8920     -0.0699      0.0000      0.0000      0.0000
     Z      0.0000      0.0000      0.0000      0.1824      0.0000      0.0000
 Anlyt      0.0000      0.0000      0.2529      0.0000      0.0000      0.0000
            0.0000      0.0000      0.0000      0.0000      0.0000      0.0000
            0.0000

     5     -0.9286     -3.6275     -0.6623      0.0000      0.0000      0.0000
     X      0.0000      0.0000      0.0000      0.0555      0.0000      0.0000
 Anlyt      0.0000      0.0000      1.3215      0.0000      0.0000      0.0000
            0.0000      0.0000      0.0000      0.0000      0.0000      0.0000
            0.0000

     5     -2.1389     -0.9853     -0.0226      0.0000      0.0000      0.0000
     Y      0.0000      0.0000      0.0000     -0.5470      0.0000      0.0000
 Anlyt      0.0000      0.0000     -0.2036      0.0000      0.0000      0.0000
            0.0000      0.0000      0.0000      0.0000      0.0000      0.0000
            0.0000

     5      1.7474     -3.1338      0.0584      0.0000      0.0000      0.0000
     Z      0.0000      0.0000      0.0000     -0.6400      0.0000      0.0000
 Anlyt      0.0000      0.0000     -0.4571      0.0000      0.0000      0.0000
            0.0000      0.0000      0.0000      0.0000      0.0000      0.0000
            0.0000

     6      0.3664     -0.9664     -0.8309      0.0000      0.0000      0.0000
     X      0.0000      0.0000      0.0000     -0.0000      0.0000      0.0000
 Anlyt      0.0000      0.0000      2.2773      0.0000      0.0000      0.0000
            0.0000      0.0000      0.0000      0.0000      0.0000      0.0000
            0.0000

     6     -0.7834     -0.4027      0.4517      0.0000      0.0000      0.0000
     Y      0.0000      0.0000      0.0000     -0.0003      0.0000      0.0000
 Anlyt      0.0000      0.0000      0.1758      0.0000      0.0000      0.0000
            0.0000      0.0000      0.0000      0.0000      0.0000      0.0000
            0.0000

     6     -0.2607     -0.1481      0.1475      0.0000      0.0000      0.0000
     Z      0.0000      0.0000      0.0000      0.0009      0.0000      0.0000
 Anlyt      0.0000      0.0000      0.0694      0.0000      0.0000      0.0000
            0.0000      0.0000      0.0000      0.0000      0.0000      0.0000
            0.0000

     7     10.2609      4.7820     -1.7985      0.0000      0.0000     -0.0000
     X      0.0000      0.0000      0.0000      1.6308      0.0000      0.0000
 Anlyt      0.0000      0.0000     -2.1951      0.0000      0.0000      0.0000
            0.0000      0.0000      0.0000      0.0000      0.0000      0.0000
            0.0000

     7    -13.4333     10.5530      2.6380      0.0000      0.0000     -0.0011
     Y      0.0000      0.0000      0.0000      0.8551      0.0000      0.0000
 Anlyt      0.0000      0.0000      0.5393      0.0000      0.0000      0.0000
            0.0000      0.0000      0.0000      0.0000      0.0000      0.0000
            0.0000

     7     -4.4137      3.6720      0.8538      0.0000      0.0000      0.0033
     Z      0.0000      0.0000      0.0000      0.3451      0.0000      0.0000
 Anlyt      0.0000      0.0000      0.1714      0.0000      0.0000      0.0000
            0.0000      0.0000      0.0000      0.0000      0.0000      0.0000
            0.0000

     8     -1.1799     -2.5447      0.6098      0.0000      0.0000      0.0000
     X      0.0000      0.0000      0.0000     -0.6660      0.0000      0.0000
 Anlyt      0.0000      0.0000     -1.1594      0.0000      0.0000      0.0000
            0.0000      0.0000      0.0000      0.0000      0.0000      0.0000
            0.0000

     8     -3.0415     -1.8961     -0.1114      0.0000      0.0000      0.0000
     Y      0.0000      0.0000      0.0000     -0.1985      0.0000      0.0000
 Anlyt      0.0000      0.0000      1.1474      0.0000      0.0000      0.0000
            0.0000      0.0000      0.0000      0.0000      0.0000      0.0000
            0.0000

     8      2.3391     -3.7491     -0.5775      0.0000      0.0000      0.0000
     Z      0.0000      0.0000      0.0000     -0.5941      0.0000      0.0000
 Anlyt      0.0000      0.0000     -0.0876      0.0000      0.0000      0.0000
            0.0000      0.0000      0.0000      0.0000      0.0000      0.0000
            0.0000

     9     -1.1394     -2.5963      0.6040      0.0000      0.0000      0.0000
     X      0.0000      0.0000      0.0000     -0.6592      0.0000      0.0000
 Anlyt      0.0000      0.0000     -1.1456      0.0000      0.0000      0.0000
            0.0000      0.0000      0.0000      0.0000      0.0000      0.0000
            0.0000

     9     -1.0033     -3.7420     -0.4401      0.0000      0.0000      0.0000
     Y      0.0000      0.0000      0.0000     -0.5032      0.0000      0.0000
 Anlyt      0.0000      0.0000      0.8494      0.0000      0.0000      0.0000
            0.0000      0.0000      0.0000      0.0000      0.0000      0.0000
            0.0000

     9     -3.7576      1.7864      0.4110      0.0000      0.0000      0.0000
     Z      0.0000      0.0000      0.0000      0.3343      0.0000      0.0000
 Anlyt      0.0000      0.0000      0.7428      0.0000      0.0000      0.0000
            0.0000      0.0000      0.0000      0.0000      0.0000      0.0000
            0.0000

    10      2.3123      0.5625      2.1837      0.0000      0.0000      0.0000
     X      0.0000      0.0000      0.0000      0.0001      0.0000      0.0000
 Anlyt      0.0000      0.0000     -0.6472      0.0000      0.0000      0.0000
            0.0000      0.0000      0.0000      0.0000      0.0000      0.0000
            0.0000

    10      0.2363     -4.8184     -0.4464      0.0000      0.0000      0.0000
     Y      0.0000      0.0000      0.0000      0.0025      0.0000      0.0000
 Anlyt      0.0000      0.0000      1.1185      0.0000      0.0000      0.0000
            0.0000      0.0000      0.0000      0.0000      0.0000      0.0000
            0.0000

    10      0.0991     -1.6354     -0.1316      0.0000      0.0000      0.0000
     Z      0.0000      0.0000      0.0000     -0.0076      0.0000      0.0000
 Anlyt      0.0000      0.0000      0.3698      0.0000      0.0000      0.0000
            0.0000      0.0000      0.0000      0.0000      0.0000      0.0000
            0.0000

 Cartesian Gradient Breakdown over Individual Atoms :

  Type      Atom              dE/dX       dE/dY       dE/dZ          Norm

 Anlyt         1            17.0622     31.3978     10.5073       37.2471
 Anlyt         2           -15.7413    -17.5926     -5.9437       24.3437
 Anlyt         3            -1.6446      6.8987      2.3111        7.4591
 Anlyt         4            -3.8962     -4.5519     -0.4324        6.0073
 Anlyt         5            -3.8414     -3.8974     -2.4251        5.9856
 Anlyt         6             0.8463     -0.5589     -0.1910        1.0321
 Anlyt         7            12.6801      1.1510      0.6320       12.7479
 Anlyt         8            -4.9401     -4.1001     -2.6692        6.9527
 Anlyt         9            -4.9364     -4.8392     -0.4833        6.9296
 Anlyt        10             4.4114     -3.9073     -1.3057        6.0359

 Total Gradient Norm and RMS Gradient per Atom :

 Anlyt      Total Gradient Norm Value               49.0294

 Anlyt      RMS Gradient over All Atoms             15.5044
