
     ######################################################################
   ##########################################################################
  ###                                                                      ###
 ###            TINKER  ---  Software Tools for Molecular Design            ###
 ##                                                                          ##
 ##                        Version 7.1  February 2015                        ##
 ##                                                                          ##
 ##               Copyright (c)  Jay William Ponder  1990-2015               ##
 ###                           All Rights Reserved                          ###
  ###                                                                      ###
   ##########################################################################
     ######################################################################


 Total Potential Energy :                  3.7229 Kcal/mole

 Potential Energy Breakdown by Individual Components :

  Energy      EB          EA          EBA         EUB         EAA         EOPB
  Terms       EOPD        EID         EIT         ET          EPT         EBT
              EAT         ETT         EV          EC          ECD         ED
              EM          EP          ER          ES          ELF         EG
              EX

            0.9186      1.5457     -0.0178      0.0000      0.0000      0.0075
            0.0000      0.0000      0.0000     -0.0774      0.0000      0.0000
            0.0000      0.0000      1.3462      0.0000      0.0000      0.0000
            0.0000      0.0000      0.0000      0.0000      0.0000      0.0000
            0.0000

 Cartesian Gradient Breakdown by Individual Components :

  Atom      d EB        d EA        d EBA       d EUB       d EAA       d EOPB
  Axis      d EOPD      d EID       d EIT       d ET        d EPT       d EBT
  Type      d EAT       d ETT       d EV        d EC        d ECD       d ED
            d EM        d EP        d ER        d ES        d ELF       d EG
            d EX

     1     11.6625      3.7657      0.5444      0.0000      0.0000      0.2131
     X      0.0000      0.0000      0.0000     -0.2912      0.0000      0.0000
 Anlyt      0.0000      0.0000      0.0000      0.0000      0.0000      0.0000
            0.0000      0.0000      0.0000      0.0000      0.0000      0.0000
            0.0000

     1     29.0341     -1.8376      1.8229      0.0000      0.0000      0.9279
     Y      0.0000      0.0000      0.0000     -0.8547      0.0000      0.0000
 Anlyt      0.0000      0.0000      0.0000      0.0000      0.0000      0.0000
            0.0000      0.0000      0.0000      0.0000      0.0000      0.0000
            0.0000

     1     15.6988      3.4738      1.0545      0.0000      0.0000     -1.8539
     Z      0.0000      0.0000      0.0000      0.8066      0.0000      0.0000
 Anlyt      0.0000      0.0000      0.0000      0.0000      0.0000      0.0000
            0.0000      0.0000      0.0000      0.0000      0.0000      0.0000
            0.0000

     2     -6.0242     -4.6461     -3.6556      0.0000      0.0000     -0.0878
     X      0.0000      0.0000      0.0000      0.0561      0.0000      0.0000
 Anlyt      0.0000      0.0000     -1.8085      0.0000      0.0000      0.0000
            0.0000      0.0000      0.0000      0.0000      0.0000      0.0000
            0.0000

     2    -10.6557      2.2456     -6.0509      0.0000      0.0000     -0.3776
     Y      0.0000      0.0000      0.0000      0.1771      0.0000      0.0000
 Anlyt      0.0000      0.0000     -1.1996      0.0000      0.0000      0.0000
            0.0000      0.0000      0.0000      0.0000      0.0000      0.0000
            0.0000

     2     -6.0934      0.6664     -3.4862      0.0000      0.0000      0.7472
     Z      0.0000      0.0000      0.0000     -0.3651      0.0000      0.0000
 Anlyt      0.0000      0.0000     -0.7198      0.0000      0.0000      0.0000
            0.0000      0.0000      0.0000      0.0000      0.0000      0.0000
            0.0000

     3    -15.2900      7.9113      3.7983      0.0000      0.0000     -0.0594
     X      0.0000      0.0000      0.0000     -0.1901      0.0000      0.0000
 Anlyt      0.0000      0.0000      2.1775      0.0000      0.0000      0.0000
            0.0000      0.0000      0.0000      0.0000      0.0000      0.0000
            0.0000

     3      2.0429     -0.5710      2.2185      0.0000      0.0000     -0.2735
     Y      0.0000      0.0000      0.0000      1.0791      0.0000      0.0000
 Anlyt      0.0000      0.0000     -1.8825      0.0000      0.0000      0.0000
            0.0000      0.0000      0.0000      0.0000      0.0000      0.0000
            0.0000

     3      0.7728      4.7430      0.7188      0.0000      0.0000      0.5471
     Z      0.0000      0.0000      0.0000      1.2127      0.0000      0.0000
 Anlyt      0.0000      0.0000     -0.8651      0.0000      0.0000      0.0000
            0.0000      0.0000      0.0000      0.0000      0.0000      0.0000
            0.0000

     4     -0.7362     -2.8812     -0.5735      0.0000      0.0000      0.0000
     X      0.0000      0.0000      0.0000      0.0166      0.0000      0.0000
 Anlyt      0.0000      0.0000      0.9960      0.0000      0.0000      0.0000
            0.0000      0.0000      0.0000      0.0000      0.0000      0.0000
            0.0000

     4      0.2689     -2.4909      0.0178      0.0000      0.0000      0.0000
     Y      0.0000      0.0000      0.0000     -0.3579      0.0000      0.0000
 Anlyt      0.0000      0.0000     -0.4599      0.0000      0.0000      0.0000
            0.0000      0.0000      0.0000      0.0000      0.0000      0.0000
            0.0000

     4     -3.2306      0.4493      0.2216      0.0000      0.0000      0.0000
     Z      0.0000      0.0000      0.0000     -0.0336      0.0000      0.0000
 Anlyt      0.0000      0.0000      0.2665      0.0000      0.0000      0.0000
            0.0000      0.0000      0.0000      0.0000      0.0000      0.0000
            0.0000

     5     -0.9627     -3.9857     -0.7882      0.0000      0.0000      0.0000
     X      0.0000      0.0000      0.0000      0.1557      0.0000      0.0000
 Anlyt      0.0000      0.0000      1.7452      0.0000      0.0000      0.0000
            0.0000      0.0000      0.0000      0.0000      0.0000      0.0000
            0.0000

     5     -2.2328      0.2577     -0.3166      0.0000      0.0000      0.0000
     Y      0.0000      0.0000      0.0000     -0.4636      0.0000      0.0000
 Anlyt      0.0000      0.0000     -0.1782      0.0000      0.0000      0.0000
            0.0000      0.0000      0.0000      0.0000      0.0000      0.0000
            0.0000

     5      0.7983     -4.0862      0.1108      0.0000      0.0000      0.0000
     Z      0.0000      0.0000      0.0000     -1.1090      0.0000      0.0000
 Anlyt      0.0000      0.0000     -0.3950      0.0000      0.0000      0.0000
            0.0000      0.0000      0.0000      0.0000      0.0000      0.0000
            0.0000

     6      0.3735     -0.9644     -0.8450      0.0000      0.0000      0.0000
     X      0.0000      0.0000      0.0000      0.0209      0.0000      0.0000
 Anlyt      0.0000      0.0000      2.2129      0.0000      0.0000      0.0000
            0.0000      0.0000      0.0000      0.0000      0.0000      0.0000
            0.0000

     6     -0.6554      0.1104      0.4115      0.0000      0.0000      0.0000
     Y      0.0000      0.0000      0.0000      0.1482      0.0000      0.0000
 Anlyt      0.0000      0.0000      0.1639      0.0000      0.0000      0.0000
            0.0000      0.0000      0.0000      0.0000      0.0000      0.0000
            0.0000

     6     -0.4326     -0.9998      0.2296      0.0000      0.0000      0.0000
     Z      0.0000      0.0000      0.0000     -0.2066      0.0000      0.0000
 Anlyt      0.0000      0.0000      0.1693      0.0000      0.0000      0.0000
            0.0000      0.0000      0.0000      0.0000      0.0000      0.0000
            0.0000

     7      3.9279      8.0536     -2.2692      0.0000      0.0000     -0.0659
     X      0.0000      0.0000      0.0000      1.1886      0.0000      0.0000
 Anlyt      0.0000      0.0000     -2.3150      0.0000      0.0000      0.0000
            0.0000      0.0000      0.0000      0.0000      0.0000      0.0000
            0.0000

     7    -13.6659     13.3230      2.1388      0.0000      0.0000     -0.2768
     Y      0.0000      0.0000      0.0000      1.2654      0.0000      0.0000
 Anlyt      0.0000      0.0000      0.5224      0.0000      0.0000      0.0000
            0.0000      0.0000      0.0000      0.0000      0.0000      0.0000
            0.0000

     7     -7.1839     -4.7384      3.0176      0.0000      0.0000      0.5596
     Z      0.0000      0.0000      0.0000     -1.2615      0.0000      0.0000
 Anlyt      0.0000      0.0000      0.1634      0.0000      0.0000      0.0000
            0.0000      0.0000      0.0000      0.0000      0.0000      0.0000
            0.0000

     8     -1.2301     -5.2993      0.6395      0.0000      0.0000      0.0000
     X      0.0000      0.0000      0.0000     -0.1736      0.0000      0.0000
 Anlyt      0.0000      0.0000     -0.8852      0.0000      0.0000      0.0000
            0.0000      0.0000      0.0000      0.0000      0.0000      0.0000
            0.0000

     8     -4.2085      0.4152      0.6426      0.0000      0.0000      0.0000
     Y      0.0000      0.0000      0.0000     -0.0549      0.0000      0.0000
 Anlyt      0.0000      0.0000      0.9308      0.0000      0.0000      0.0000
            0.0000      0.0000      0.0000      0.0000      0.0000      0.0000
            0.0000

     8      3.5966     -1.3266     -1.3638      0.0000      0.0000      0.0000
     Z      0.0000      0.0000      0.0000     -0.1236      0.0000      0.0000
 Anlyt      0.0000      0.0000     -0.1112      0.0000      0.0000      0.0000
            0.0000      0.0000      0.0000      0.0000      0.0000      0.0000
            0.0000

     9     -1.4606     -2.6462      0.3917      0.0000      0.0000      0.0000
     X      0.0000      0.0000      0.0000     -0.8301      0.0000      0.0000
 Anlyt      0.0000      0.0000     -1.6113      0.0000      0.0000      0.0000
            0.0000      0.0000      0.0000      0.0000      0.0000      0.0000
            0.0000

     9     -1.0919     -5.1810     -0.5446      0.0000      0.0000      0.0000
     Y      0.0000      0.0000      0.0000     -0.7688      0.0000      0.0000
 Anlyt      0.0000      0.0000      1.2864      0.0000      0.0000      0.0000
            0.0000      0.0000      0.0000      0.0000      0.0000      0.0000
            0.0000

     9     -3.3705      2.8251     -0.0464      0.0000      0.0000      0.0000
     Z      0.0000      0.0000      0.0000      0.6088      0.0000      0.0000
 Anlyt      0.0000      0.0000      1.0419      0.0000      0.0000      0.0000
            0.0000      0.0000      0.0000      0.0000      0.0000      0.0000
            0.0000

    10      9.7400      0.6923      2.7576      0.0000      0.0000      0.0000
     X      0.0000      0.0000      0.0000      0.0472      0.0000      0.0000
 Anlyt      0.0000      0.0000     -0.5117      0.0000      0.0000      0.0000
            0.0000      0.0000      0.0000      0.0000      0.0000      0.0000
            0.0000

    10      1.1643     -6.2715     -0.3400      0.0000      0.0000      0.0000
     Y      0.0000      0.0000      0.0000     -0.1698      0.0000      0.0000
 Anlyt      0.0000      0.0000      0.8168      0.0000      0.0000      0.0000
            0.0000      0.0000      0.0000      0.0000      0.0000      0.0000
            0.0000

    10     -0.5555     -1.0065     -0.4565      0.0000      0.0000      0.0000
     Z      0.0000      0.0000      0.0000      0.4713      0.0000      0.0000
 Anlyt      0.0000      0.0000      0.4501      0.0000      0.0000      0.0000
            0.0000      0.0000      0.0000      0.0000      0.0000      0.0000
            0.0000

 Cartesian Gradient Breakdown over Individual Atoms :

  Type      Atom              dE/dX       dE/dY       dE/dZ          Norm

 Anlyt         1            15.8945     29.0925     19.1797       38.2998
 Anlyt         2           -16.1661    -15.8611     -9.2510       24.4643
 Anlyt         3            -1.6524      2.6136      7.1294        7.7711
 Anlyt         4            -3.1782     -3.0221     -2.3268        4.9647
 Anlyt         5            -3.8357     -2.9335     -4.6812        6.7254
 Anlyt         6             0.7978      0.1786     -1.2401        1.4854
 Anlyt         7             8.5199      3.3068     -9.4432       13.1414
 Anlyt         8            -6.9487     -2.2747      0.6714        7.3423
 Anlyt         9            -6.1566     -6.2999      1.0590        8.8721
 Anlyt        10            12.7254     -4.8002     -1.0971       13.6449

 Total Gradient Norm and RMS Gradient per Atom :

 Anlyt      Total Gradient Norm Value               51.8589

 Anlyt      RMS Gradient over All Atoms             16.3992
