
     ######################################################################
   ##########################################################################
  ###                                                                      ###
 ###            TINKER  ---  Software Tools for Molecular Design            ###
 ##                                                                          ##
 ##                        Version 7.1  February 2015                        ##
 ##                                                                          ##
 ##               Copyright (c)  Jay William Ponder  1990-2015               ##
 ###                           All Rights Reserved                          ###
  ###                                                                      ###
   ##########################################################################
     ######################################################################


 Total Potential Energy :                  8.8031 Kcal/mole

 Potential Energy Breakdown by Individual Components :

  Energy      EB          EA          EBA         EUB         EAA         EOPB
  Terms       EOPD        EID         EIT         ET          EPT         EBT
              EAT         ETT         EV          EC          ECD         ED
              EM          EP          ER          ES          ELF         EG
              EX

            1.5032      5.8383      0.2669      0.0000      0.0000      0.0000
            0.0000      0.0000      0.0000      0.0000      0.0000      0.0000
            0.0000      0.0000      0.0453      1.1494      0.0000      0.0000
            0.0000      0.0000      0.0000      0.0000      0.0000      0.0000
            0.0000

 Cartesian Gradient Breakdown by Individual Components :

  Atom      d EB        d EA        d EBA       d EUB       d EAA       d EOPB
  Axis      d EOPD      d EID       d EIT       d ET        d EPT       d EBT
  Type      d EAT       d ETT       d EV        d EC        d ECD       d ED
            d EM        d EP        d ER        d ES        d ELF       d EG
            d EX

     1     10.7082     27.6047    -10.3046      0.0000      0.0000      0.0000
     X      0.0000      0.0000      0.0000      0.0000      0.0000      0.0000
 Anlyt      0.0000      0.0000      0.2909      0.0639      0.0000      0.0000
            0.0000      0.0000      0.0000      0.0000      0.0000      0.0000
            0.0000

     1     -0.6075    -17.2204      0.6110      0.0000      0.0000      0.0000
     Y      0.0000      0.0000      0.0000     -0.0000      0.0000      0.0000
 Anlyt      0.0000      0.0000      0.5692      0.1005      0.0000      0.0000
            0.0000      0.0000      0.0000      0.0000      0.0000      0.0000
            0.0000

     1     -0.0006     -0.0023      0.0005      0.0000      0.0000      0.0020
     Z      0.0000      0.0000      0.0000      0.0022      0.0000      0.0000
 Anlyt      0.0000      0.0000     -0.0000     -0.0000      0.0000      0.0000
            0.0000      0.0000      0.0000      0.0000      0.0000      0.0000
            0.0000

     2    -23.7680      1.1175     11.4019      0.0000      0.0000      0.0000
     X      0.0000      0.0000      0.0000      0.0000      0.0000      0.0000
 Anlyt      0.0000      0.0000     -0.0666      0.1370      0.0000      0.0000
            0.0000      0.0000      0.0000      0.0000      0.0000      0.0000
            0.0000

     2    -38.5013     11.1531     -6.8538      0.0000      0.0000      0.0000
     Y      0.0000      0.0000      0.0000      0.0000      0.0000      0.0000
 Anlyt      0.0000      0.0000      0.2322     -0.4779      0.0000      0.0000
            0.0000      0.0000      0.0000      0.0000      0.0000      0.0000
            0.0000

     2     -0.0009      0.0042     -0.0005      0.0000      0.0000     -0.0064
     Z      0.0000      0.0000      0.0000     -0.0085      0.0000      0.0000
 Anlyt      0.0000      0.0000     -0.0000      0.0000      0.0000      0.0000
            0.0000      0.0000      0.0000      0.0000      0.0000      0.0000
            0.0000

     3      2.1314     -5.3919     13.2788      0.0000      0.0000     -0.0000
     X      0.0000      0.0000      0.0000     -0.0000      0.0000      0.0000
 Anlyt      0.0000      0.0000     -0.1861      0.3829      0.0000      0.0000
            0.0000      0.0000      0.0000      0.0000      0.0000      0.0000
            0.0000

     3     45.1840     -9.8616     -0.7766      0.0000      0.0000      0.0000
     Y      0.0000      0.0000      0.0000      0.0000      0.0000      0.0000
 Anlyt      0.0000      0.0000     -0.1541      0.3171      0.0000      0.0000
            0.0000      0.0000      0.0000      0.0000      0.0000      0.0000
            0.0000

     3      0.0000     -0.0063      0.0015      0.0000      0.0000      0.0096
     Z      0.0000      0.0000      0.0000      0.0107      0.0000      0.0000
 Anlyt      0.0000      0.0000      0.0000     -0.0000      0.0000      0.0000
            0.0000      0.0000      0.0000      0.0000      0.0000      0.0000
            0.0000

     4      9.1525     32.5128     -8.8468      0.0000      0.0000      0.0000
     X      0.0000      0.0000      0.0000      0.0000      0.0000      0.0000
 Anlyt      0.0000      0.0000     -0.0813     -0.0040      0.0000      0.0000
            0.0000      0.0000      0.0000      0.0000      0.0000      0.0000
            0.0000

     4     -5.5389     -1.3445      5.3097      0.0000      0.0000     -0.0000
     Y      0.0000      0.0000      0.0000     -0.0000      0.0000      0.0000
 Anlyt      0.0000      0.0000     -0.6340     -0.1191      0.0000      0.0000
            0.0000      0.0000      0.0000      0.0000      0.0000      0.0000
            0.0000

     4      0.0014      0.0056     -0.0013      0.0000      0.0000     -0.0089
     Z      0.0000      0.0000      0.0000     -0.0115      0.0000      0.0000
 Anlyt      0.0000      0.0000      0.0000      0.0000      0.0000      0.0000
            0.0000      0.0000      0.0000      0.0000      0.0000      0.0000
            0.0000

     5      0.3566    -12.2345     -1.4498      0.0000      0.0000     -0.0000
     X      0.0000      0.0000      0.0000      0.0000      0.0000      0.0000
 Anlyt      0.0000      0.0000      0.4541      0.8052      0.0000      0.0000
            0.0000      0.0000      0.0000      0.0000      0.0000      0.0000
            0.0000

     5      0.3574     12.2068     -2.1022      0.0000      0.0000     -0.0000
     Y      0.0000      0.0000      0.0000      0.0000      0.0000      0.0000
 Anlyt      0.0000      0.0000      0.5277      0.3426      0.0000      0.0000
            0.0000      0.0000      0.0000      0.0000      0.0000      0.0000
            0.0000

     5     -0.0000      0.0002      0.0001      0.0000      0.0000     -0.0003
     Z      0.0000      0.0000      0.0000      0.0006      0.0000      0.0000
 Anlyt      0.0000      0.0000     -0.0000     -0.0001      0.0000      0.0000
            0.0000      0.0000      0.0000      0.0000      0.0000      0.0000
            0.0000

     6      0.5182     -0.9103     -2.8812      0.0000      0.0000      0.0000
     X      0.0000      0.0000      0.0000      0.0000      0.0000      0.0000
 Anlyt      0.0000      0.0000     -0.1631      0.1820      0.0000      0.0000
            0.0000      0.0000      0.0000      0.0000      0.0000      0.0000
            0.0000

     6     -0.7286     -0.6475     -0.2607      0.0000      0.0000      0.0000
     Y      0.0000      0.0000      0.0000      0.0000      0.0000      0.0000
 Anlyt      0.0000      0.0000      0.3258      0.3806      0.0000      0.0000
            0.0000      0.0000      0.0000      0.0000      0.0000      0.0000
            0.0000

     6      0.0000      0.0002     -0.0001      0.0000      0.0000      0.0020
     Z      0.0000      0.0000      0.0000     -0.0012      0.0000      0.0000
 Anlyt      0.0000      0.0000     -0.0000      0.0000      0.0000      0.0000
            0.0000      0.0000      0.0000      0.0000      0.0000      0.0000
            0.0000

     7      0.8428     -0.3894     -2.2330      0.0000      0.0000      0.0000
     X      0.0000      0.0000      0.0000     -0.0000      0.0000      0.0000
 Anlyt      0.0000      0.0000     -0.3186     -0.0646      0.0000      0.0000
            0.0000      0.0000      0.0000      0.0000      0.0000      0.0000
            0.0000

     7      0.3102      1.0579      1.8400      0.0000      0.0000     -0.0000
     Y      0.0000      0.0000      0.0000      0.0000      0.0000      0.0000
 Anlyt      0.0000      0.0000     -0.1769     -0.4169      0.0000      0.0000
            0.0000      0.0000      0.0000      0.0000      0.0000      0.0000
            0.0000

     7      0.0000     -0.0003     -0.0001      0.0000      0.0000     -0.0026
     Z      0.0000      0.0000      0.0000      0.0022      0.0000      0.0000
 Anlyt      0.0000      0.0000     -0.0000     -0.0001      0.0000      0.0000
            0.0000      0.0000      0.0000      0.0000      0.0000      0.0000
            0.0000

     8      0.0926    -16.9887     -0.0116      0.0000      0.0000     -0.0000
     X      0.0000      0.0000      0.0000      0.0000      0.0000      0.0000
 Anlyt      0.0000      0.0000      0.0769      0.4712      0.0000      0.0000
            0.0000      0.0000      0.0000      0.0000      0.0000      0.0000
            0.0000

     8     -0.4967     -3.1684      2.5549      0.0000      0.0000      0.0000
     Y      0.0000      0.0000      0.0000     -0.0000      0.0000      0.0000
 Anlyt      0.0000      0.0000     -0.6918     -0.7374      0.0000      0.0000
            0.0000      0.0000      0.0000      0.0000      0.0000      0.0000
            0.0000

     8      0.0001      0.0004     -0.0002      0.0000      0.0000      0.0030
     Z      0.0000      0.0000      0.0000     -0.0010      0.0000      0.0000
 Anlyt      0.0000      0.0000      0.0001      0.0001      0.0000      0.0000
            0.0000      0.0000      0.0000      0.0000      0.0000      0.0000
            0.0000

     9     -0.0346    -25.3201      1.0464      0.0000      0.0000      0.0000
     X      0.0000      0.0000      0.0000      0.0000      0.0000      0.0000
 Anlyt      0.0000      0.0000     -0.0062     -1.9737      0.0000      0.0000
            0.0000      0.0000      0.0000      0.0000      0.0000      0.0000
            0.0000

     9      0.0212      7.8245     -0.3221      0.0000      0.0000      0.0000
     Y      0.0000      0.0000      0.0000      0.0000      0.0000      0.0000
 Anlyt      0.0000      0.0000      0.0019      0.6104      0.0000      0.0000
            0.0000      0.0000      0.0000      0.0000      0.0000      0.0000
            0.0000

     9      0.0000     -0.0018      0.0000      0.0000      0.0000      0.0017
     Z      0.0000      0.0000      0.0000      0.0064      0.0000      0.0000
 Anlyt      0.0000      0.0000      0.0000      0.0000      0.0000      0.0000
            0.0000      0.0000      0.0000      0.0000      0.0000      0.0000
            0.0000

 Cartesian Gradient Breakdown over Individual Atoms :

  Type      Atom              dE/dX       dE/dY       dE/dZ          Norm

 Anlyt         1            28.3632    -16.5472      0.0017       32.8372
 Anlyt         2           -11.1782    -34.4477     -0.0121       36.2160
 Anlyt         3            10.2151     34.7088      0.0156       36.1808
 Anlyt         4            32.7332     -2.3268     -0.0146       32.8158
 Anlyt         5           -12.0684     11.3323      0.0006       16.5550
 Anlyt         6            -3.2543     -0.9304      0.0009        3.3847
 Anlyt         7            -2.1629      2.6143     -0.0009        3.3930
 Anlyt         8           -16.3595     -2.5393      0.0024       16.5554
 Anlyt         9           -26.2882      8.1359      0.0063       27.5184

 Total Gradient Norm and RMS Gradient per Atom :

 Anlyt      Total Gradient Norm Value               78.1293

 Anlyt      RMS Gradient over All Atoms             26.0431
