
     ######################################################################
   ##########################################################################
  ###                                                                      ###
 ###            TINKER  ---  Software Tools for Molecular Design            ###
 ##                                                                          ##
 ##                        Version 7.1  February 2015                        ##
 ##                                                                          ##
 ##               Copyright (c)  Jay William Ponder  1990-2015               ##
 ###                           All Rights Reserved                          ###
  ###                                                                      ###
   ##########################################################################
     ######################################################################


 Total Potential Energy :                  8.5110 Kcal/mole

 Potential Energy Breakdown by Individual Components :

  Energy      EB          EA          EBA         EUB         EAA         EOPB
  Terms       EOPD        EID         EIT         ET          EPT         EBT
              EAT         ETT         EV          EC          ECD         ED
              EM          EP          ER          ES          ELF         EG
              EX

            1.3458      5.6789      0.3136      0.0000      0.0000      0.0000
            0.0000      0.0000      0.0000      0.0000      0.0000      0.0000
            0.0000      0.0000      0.0339      1.1387      0.0000      0.0000
            0.0000      0.0000      0.0000      0.0000      0.0000      0.0000
            0.0000

 Cartesian Gradient Breakdown by Individual Components :

  Atom      d EB        d EA        d EBA       d EUB       d EAA       d EOPB
  Axis      d EOPD      d EID       d EIT       d ET        d EPT       d EBT
  Type      d EAT       d ETT       d EV        d EC        d ECD       d ED
            d EM        d EP        d ER        d ES        d ELF       d EG
            d EX

     1      7.7115     20.1762     -7.7001      0.0000      0.0000      0.0072
     X      0.0000      0.0000      0.0000      0.0192      0.0000      0.0000
 Anlyt      0.0000      0.0000      0.2129      0.0468      0.0000      0.0000
            0.0000      0.0000      0.0000      0.0000      0.0000      0.0000
            0.0000

     1      0.9023    -19.5872      1.0749      0.0000      0.0000      0.0013
     Y      0.0000      0.0000      0.0000      0.0035      0.0000      0.0000
 Anlyt      0.0000      0.0000      0.5157      0.0935      0.0000      0.0000
            0.0000      0.0000      0.0000      0.0000      0.0000      0.0000
            0.0000

     1      6.9685     14.7343     -6.6439      0.0000      0.0000     -0.0081
     Z      0.0000      0.0000      0.0000     -0.0217      0.0000      0.0000
 Anlyt      0.0000      0.0000      0.2704      0.0563      0.0000      0.0000
            0.0000      0.0000      0.0000      0.0000      0.0000      0.0000
            0.0000

     2    -17.2457      1.6026      8.8386      0.0000      0.0000      0.0009
     X      0.0000      0.0000      0.0000      0.0128      0.0000      0.0000
 Anlyt      0.0000      0.0000     -0.0501      0.1086      0.0000      0.0000
            0.0000      0.0000      0.0000      0.0000      0.0000      0.0000
            0.0000

     2    -34.6770      9.9364     -7.7767      0.0000      0.0000      0.0002
     Y      0.0000      0.0000      0.0000      0.0023      0.0000      0.0000
 Anlyt      0.0000      0.0000      0.2217     -0.4811      0.0000      0.0000
            0.0000      0.0000      0.0000      0.0000      0.0000      0.0000
            0.0000

     2    -20.7862      2.9937      6.5840      0.0000      0.0000     -0.0010
     Z      0.0000      0.0000      0.0000     -0.0144      0.0000      0.0000
 Anlyt      0.0000      0.0000     -0.0090      0.0196      0.0000      0.0000
            0.0000      0.0000      0.0000      0.0000      0.0000      0.0000
            0.0000

     3      3.9867     -6.6014      9.8084      0.0000      0.0000     -0.0005
     X      0.0000      0.0000      0.0000     -0.0108      0.0000      0.0000
 Anlyt      0.0000      0.0000     -0.1406      0.2843      0.0000      0.0000
            0.0000      0.0000      0.0000      0.0000      0.0000      0.0000
            0.0000

     3     39.4446    -10.7148     -1.1750      0.0000      0.0000     -0.0001
     Y      0.0000      0.0000      0.0000     -0.0020      0.0000      0.0000
 Anlyt      0.0000      0.0000     -0.1396      0.2821      0.0000      0.0000
            0.0000      0.0000      0.0000      0.0000      0.0000      0.0000
            0.0000

     3      9.8142     -7.5295      8.4872      0.0000      0.0000      0.0005
     Z      0.0000      0.0000      0.0000      0.0122      0.0000      0.0000
 Anlyt      0.0000      0.0000     -0.1467      0.2965      0.0000      0.0000
            0.0000      0.0000      0.0000      0.0000      0.0000      0.0000
            0.0000

     4      5.5481     22.5001     -6.1363      0.0000      0.0000     -0.0326
     X      0.0000      0.0000      0.0000     -0.0526      0.0000      0.0000
 Anlyt      0.0000      0.0000     -0.0509     -0.0011      0.0000      0.0000
            0.0000      0.0000      0.0000      0.0000      0.0000      0.0000
            0.0000

     4     -2.9694      2.5855      5.5370      0.0000      0.0000     -0.0058
     Y      0.0000      0.0000      0.0000     -0.0094      0.0000      0.0000
 Anlyt      0.0000      0.0000     -0.5985     -0.1170      0.0000      0.0000
            0.0000      0.0000      0.0000      0.0000      0.0000      0.0000
            0.0000

     4      4.4376     20.3125     -4.5430      0.0000      0.0000      0.0369
     Z      0.0000      0.0000      0.0000      0.0595      0.0000      0.0000
 Anlyt      0.0000      0.0000     -0.1404     -0.0197      0.0000      0.0000
            0.0000      0.0000      0.0000      0.0000      0.0000      0.0000
            0.0000

     5      0.3034     -9.4895     -1.1304      0.0000      0.0000     -0.0030
     X      0.0000      0.0000      0.0000     -0.0066      0.0000      0.0000
 Anlyt      0.0000      0.0000      0.3308      0.5996      0.0000      0.0000
            0.0000      0.0000      0.0000      0.0000      0.0000      0.0000
            0.0000

     5      0.3720     13.2712     -1.9026      0.0000      0.0000     -0.0005
     Y      0.0000      0.0000      0.0000     -0.0012      0.0000      0.0000
 Anlyt      0.0000      0.0000      0.4765      0.2683      0.0000      0.0000
            0.0000      0.0000      0.0000      0.0000      0.0000      0.0000
            0.0000

     5      0.3276     -6.2830     -1.3028      0.0000      0.0000      0.0034
     Z      0.0000      0.0000      0.0000      0.0074      0.0000      0.0000
 Anlyt      0.0000      0.0000      0.3686      0.5732      0.0000      0.0000
            0.0000      0.0000      0.0000      0.0000      0.0000      0.0000
            0.0000

     6      0.3366     -0.4838     -2.0909      0.0000      0.0000      0.0001
     X      0.0000      0.0000      0.0000     -0.0069      0.0000      0.0000
 Anlyt      0.0000      0.0000     -0.1211      0.1365      0.0000      0.0000
            0.0000      0.0000      0.0000      0.0000      0.0000      0.0000
            0.0000

     6     -0.6382     -0.4067     -0.0316      0.0000      0.0000      0.0000
     Y      0.0000      0.0000      0.0000     -0.0012      0.0000      0.0000
 Anlyt      0.0000      0.0000      0.3326      0.3638      0.0000      0.0000
            0.0000      0.0000      0.0000      0.0000      0.0000      0.0000
            0.0000

     6      0.1962     -0.4929     -1.8554      0.0000      0.0000     -0.0001
     Z      0.0000      0.0000      0.0000      0.0078      0.0000      0.0000
 Anlyt      0.0000      0.0000     -0.0541      0.1785      0.0000      0.0000
            0.0000      0.0000      0.0000      0.0000      0.0000      0.0000
            0.0000

     7      0.8836     -0.1444     -1.8564      0.0000      0.0000      0.0052
     X      0.0000      0.0000      0.0000      0.0124      0.0000      0.0000
 Anlyt      0.0000      0.0000     -0.2397     -0.0387      0.0000      0.0000
            0.0000      0.0000      0.0000      0.0000      0.0000      0.0000
            0.0000

     7      0.3219      0.5165      1.6211      0.0000      0.0000      0.0009
     Y      0.0000      0.0000      0.0000      0.0022      0.0000      0.0000
 Anlyt      0.0000      0.0000     -0.1615     -0.4124      0.0000      0.0000
            0.0000      0.0000      0.0000      0.0000      0.0000      0.0000
            0.0000

     7      0.8324     -0.0465     -1.3824      0.0000      0.0000     -0.0059
     Z      0.0000      0.0000      0.0000     -0.0140      0.0000      0.0000
 Anlyt      0.0000      0.0000     -0.2378     -0.0999      0.0000      0.0000
            0.0000      0.0000      0.0000      0.0000      0.0000      0.0000
            0.0000

     8     -1.3068    -15.9624      0.4365      0.0000      0.0000      0.0074
     X      0.0000      0.0000      0.0000      0.0054      0.0000      0.0000
 Anlyt      0.0000      0.0000     -0.0040     -1.4980      0.0000      0.0000
            0.0000      0.0000      0.0000      0.0000      0.0000      0.0000
            0.0000

     8     -4.2165      5.8478     -0.1143      0.0000      0.0000      0.0013
     Y      0.0000      0.0000      0.0000      0.0010      0.0000      0.0000
 Anlyt      0.0000      0.0000      0.0020      0.7721      0.0000      0.0000
            0.0000      0.0000      0.0000      0.0000      0.0000      0.0000
            0.0000

     8     -1.8289    -13.1977      0.3682      0.0000      0.0000     -0.0084
     Z      0.0000      0.0000      0.0000     -0.0061      0.0000      0.0000
 Anlyt      0.0000      0.0000     -0.0032     -1.2024      0.0000      0.0000
            0.0000      0.0000      0.0000      0.0000      0.0000      0.0000
            0.0000

     9     -0.2174    -11.5974     -0.1694      0.0000      0.0000      0.0153
     X      0.0000      0.0000      0.0000      0.0271      0.0000      0.0000
 Anlyt      0.0000      0.0000      0.0627      0.3619      0.0000      0.0000
            0.0000      0.0000      0.0000      0.0000      0.0000      0.0000
            0.0000

     9      1.4602     -1.4487      2.7672      0.0000      0.0000      0.0027
     Y      0.0000      0.0000      0.0000      0.0049      0.0000      0.0000
 Anlyt      0.0000      0.0000     -0.6489     -0.7694      0.0000      0.0000
            0.0000      0.0000      0.0000      0.0000      0.0000      0.0000
            0.0000

     9      0.0387    -10.4909      0.2881      0.0000      0.0000     -0.0173
     Z      0.0000      0.0000      0.0000     -0.0307      0.0000      0.0000
 Anlyt      0.0000      0.0000     -0.0478      0.1978      0.0000      0.0000
            0.0000      0.0000      0.0000      0.0000      0.0000      0.0000
            0.0000

 Cartesian Gradient Breakdown over Individual Atoms :

  Type      Atom              dE/dX       dE/dY       dE/dZ          Norm

 Anlyt         1            20.4736    -16.9961     15.3557       30.7219
 Anlyt         2            -6.7323    -32.7743    -11.2134       35.2876
 Anlyt         3             7.3261     27.6953     10.9344       30.6637
 Anlyt         4            21.7747      4.4224     20.1434       29.9909
 Anlyt         5            -9.3957     12.4837     -6.3056       16.8488
 Anlyt         6            -2.2295     -0.3813     -2.0200        3.0325
 Anlyt         7            -1.3779      1.8888     -0.9542        2.5252
 Anlyt         8           -18.3219      2.2935    -15.8785       24.3532
 Anlyt         9           -11.5171      1.3681    -10.0620       15.3545

 Total Gradient Norm and RMS Gradient per Atom :

 Anlyt      Total Gradient Norm Value               71.8127

 Anlyt      RMS Gradient over All Atoms             23.9376
