
     ######################################################################
   ##########################################################################
  ###                                                                      ###
 ###            TINKER  ---  Software Tools for Molecular Design            ###
 ##                                                                          ##
 ##                        Version 7.1  February 2015                        ##
 ##                                                                          ##
 ##               Copyright (c)  Jay William Ponder  1990-2015               ##
 ###                           All Rights Reserved                          ###
  ###                                                                      ###
   ##########################################################################
     ######################################################################


 Total Potential Energy :                  8.6848 Kcal/mole

 Potential Energy Breakdown by Individual Components :

  Energy      EB          EA          EBA         EUB         EAA         EOPB
  Terms       EOPD        EID         EIT         ET          EPT         EBT
              EAT         ETT         EV          EC          ECD         ED
              EM          EP          ER          ES          ELF         EG
              EX

            1.3946      5.8095      0.3312      0.0000      0.0000      0.0000
            0.0000      0.0000      0.0000      0.0000      0.0000      0.0000
            0.0000      0.0000      0.0240      1.1254      0.0000      0.0000
            0.0000      0.0000      0.0000      0.0000      0.0000      0.0000
            0.0000

 Cartesian Gradient Breakdown by Individual Components :

  Atom      d EB        d EA        d EBA       d EUB       d EAA       d EOPB
  Axis      d EOPD      d EID       d EIT       d ET        d EPT       d EBT
  Type      d EAT       d ETT       d EV        d EC        d ECD       d ED
            d EM        d EP        d ER        d ES        d ELF       d EG
            d EX

     1     10.3674     24.7963    -10.2052      0.0000      0.0000      0.0000
     X      0.0000      0.0000      0.0000      0.0000      0.0000      0.0000
 Anlyt      0.0000      0.0000      0.3212      0.0693      0.0000      0.0000
            0.0000      0.0000      0.0000      0.0000      0.0000      0.0000
            0.0000

     1      2.6394    -19.1544      0.5458      0.0000      0.0000     -0.0000
     Y      0.0000      0.0000      0.0000     -0.0000      0.0000      0.0000
 Anlyt      0.0000      0.0000      0.5092      0.0958      0.0000      0.0000
            0.0000      0.0000      0.0000      0.0000      0.0000      0.0000
            0.0000

     1     -0.0017     -0.0243      0.0035      0.0000      0.0000      0.0041
     Z      0.0000      0.0000      0.0000      0.0044      0.0000      0.0000
 Anlyt      0.0000      0.0000      0.0002      0.0000      0.0000      0.0000
            0.0000      0.0000      0.0000      0.0000      0.0000      0.0000
            0.0000

     2    -25.8457      3.5621     11.3812      0.0000      0.0000     -0.0000
     X      0.0000      0.0000      0.0000     -0.0000      0.0000      0.0000
 Anlyt      0.0000      0.0000     -0.0468      0.1087      0.0000      0.0000
            0.0000      0.0000      0.0000      0.0000      0.0000      0.0000
            0.0000

     2    -35.3589      9.6473     -7.2515      0.0000      0.0000      0.0000
     Y      0.0000      0.0000      0.0000      0.0000      0.0000      0.0000
 Anlyt      0.0000      0.0000      0.2056     -0.4770      0.0000      0.0000
            0.0000      0.0000      0.0000      0.0000      0.0000      0.0000
            0.0000

     2     -0.0254      0.0187     -0.0089      0.0000      0.0000     -0.0180
     Z      0.0000      0.0000      0.0000     -0.0262      0.0000      0.0000
 Anlyt      0.0000      0.0000      0.0001     -0.0003      0.0000      0.0000
            0.0000      0.0000      0.0000      0.0000      0.0000      0.0000
            0.0000

     3      9.0044    -11.8050     13.1803      0.0000      0.0000     -0.0000
     X      0.0000      0.0000      0.0000     -0.0000      0.0000      0.0000
 Anlyt      0.0000      0.0000     -0.1991      0.4008      0.0000      0.0000
            0.0000      0.0000      0.0000      0.0000      0.0000      0.0000
            0.0000

     3     38.9717    -10.9212     -1.3374      0.0000      0.0000     -0.0000
     Y      0.0000      0.0000      0.0000     -0.0000      0.0000      0.0000
 Anlyt      0.0000      0.0000     -0.1474      0.2967      0.0000      0.0000
            0.0000      0.0000      0.0000      0.0000      0.0000      0.0000
            0.0000

     3      0.0312     -0.0224      0.0007      0.0000      0.0000      0.0231
     Z      0.0000      0.0000      0.0000      0.0218      0.0000      0.0000
 Anlyt      0.0000      0.0000     -0.0001      0.0001      0.0000      0.0000
            0.0000      0.0000      0.0000      0.0000      0.0000      0.0000
            0.0000

     4      9.4662     31.1973     -8.0127      0.0000      0.0000     -0.0000
     X      0.0000      0.0000      0.0000     -0.0000      0.0000      0.0000
 Anlyt      0.0000      0.0000     -0.1101     -0.0102      0.0000      0.0000
            0.0000      0.0000      0.0000      0.0000      0.0000      0.0000
            0.0000

     4     -8.5619      6.2102      5.3859      0.0000      0.0000      0.0000
     Y      0.0000      0.0000      0.0000      0.0000      0.0000      0.0000
 Anlyt      0.0000      0.0000     -0.5961     -0.1179      0.0000      0.0000
            0.0000      0.0000      0.0000      0.0000      0.0000      0.0000
            0.0000

     4     -0.0055      0.0120      0.0030      0.0000      0.0000     -0.0190
     Z      0.0000      0.0000      0.0000     -0.0208      0.0000      0.0000
 Anlyt      0.0000      0.0000     -0.0003     -0.0001      0.0000      0.0000
            0.0000      0.0000      0.0000      0.0000      0.0000      0.0000
            0.0000

     5      0.4081    -11.6771     -1.6984      0.0000      0.0000     -0.0000
     X      0.0000      0.0000      0.0000      0.0000      0.0000      0.0000
 Anlyt      0.0000      0.0000      0.4733      0.8185      0.0000      0.0000
            0.0000      0.0000      0.0000      0.0000      0.0000      0.0000
            0.0000

     5      0.3658     13.0260     -1.9403      0.0000      0.0000      0.0000
     Y      0.0000      0.0000      0.0000     -0.0000      0.0000      0.0000
 Anlyt      0.0000      0.0000      0.4888      0.2934      0.0000      0.0000
            0.0000      0.0000      0.0000      0.0000      0.0000      0.0000
            0.0000

     5      0.0001      0.0127     -0.0007      0.0000      0.0000     -0.0000
     Z      0.0000      0.0000      0.0000      0.0026      0.0000      0.0000
 Anlyt      0.0000      0.0000      0.0002     -0.0001      0.0000      0.0000
            0.0000      0.0000      0.0000      0.0000      0.0000      0.0000
            0.0000

     6      0.3855     -0.4943     -2.7825      0.0000      0.0000      0.0000
     X      0.0000      0.0000      0.0000      0.0000      0.0000      0.0000
 Anlyt      0.0000      0.0000     -0.1318      0.2146      0.0000      0.0000
            0.0000      0.0000      0.0000      0.0000      0.0000      0.0000
            0.0000

     6     -0.6034     -0.3158     -0.1233      0.0000      0.0000     -0.0000
     Y      0.0000      0.0000      0.0000      0.0000      0.0000      0.0000
 Anlyt      0.0000      0.0000      0.3352      0.3741      0.0000      0.0000
            0.0000      0.0000      0.0000      0.0000      0.0000      0.0000
            0.0000

     6     -0.0005      0.0004      0.0001      0.0000      0.0000      0.0061
     Z      0.0000      0.0000      0.0000     -0.0020      0.0000      0.0000
 Anlyt      0.0000      0.0000      0.0003      0.0003      0.0000      0.0000
            0.0000      0.0000      0.0000      0.0000      0.0000      0.0000
            0.0000

     7      1.2368      0.1712     -2.4695      0.0000      0.0000     -0.0000
     X      0.0000      0.0000      0.0000     -0.0000      0.0000      0.0000
 Anlyt      0.0000      0.0000     -0.3277     -0.0757      0.0000      0.0000
            0.0000      0.0000      0.0000      0.0000      0.0000      0.0000
            0.0000

     7      0.3587     -0.5904      1.4747      0.0000      0.0000      0.0000
     Y      0.0000      0.0000      0.0000     -0.0000      0.0000      0.0000
 Anlyt      0.0000      0.0000     -0.1891     -0.4283      0.0000      0.0000
            0.0000      0.0000      0.0000      0.0000      0.0000      0.0000
            0.0000

     7      0.0002     -0.0011      0.0014      0.0000      0.0000     -0.0063
     Z      0.0000      0.0000      0.0000      0.0102      0.0000      0.0000
 Anlyt      0.0000      0.0000     -0.0001     -0.0006      0.0000      0.0000
            0.0000      0.0000      0.0000      0.0000      0.0000      0.0000
            0.0000

     8     -3.7964    -19.4248      0.8669      0.0000      0.0000      0.0000
     X      0.0000      0.0000      0.0000      0.0000      0.0000      0.0000
 Anlyt      0.0000      0.0000     -0.0049     -1.9429      0.0000      0.0000
            0.0000      0.0000      0.0000      0.0000      0.0000      0.0000
            0.0000

     8     -7.1866      4.2339      0.1227      0.0000      0.0000     -0.0000
     Y      0.0000      0.0000      0.0000     -0.0000      0.0000      0.0000
 Anlyt      0.0000      0.0000      0.0016      0.7220      0.0000      0.0000
            0.0000      0.0000      0.0000      0.0000      0.0000      0.0000
            0.0000

     8     -0.0026      0.0022     -0.0002      0.0000      0.0000      0.0037
     Z      0.0000      0.0000      0.0000      0.0188      0.0000      0.0000
 Anlyt      0.0000      0.0000      0.0000      0.0009      0.0000      0.0000
            0.0000      0.0000      0.0000      0.0000      0.0000      0.0000
            0.0000

     9     -1.2263    -16.3257     -0.2602      0.0000      0.0000      0.0000
     X      0.0000      0.0000      0.0000     -0.0000      0.0000      0.0000
 Anlyt      0.0000      0.0000      0.0260      0.4170      0.0000      0.0000
            0.0000      0.0000      0.0000      0.0000      0.0000      0.0000
            0.0000

     9      9.3753     -2.1355      3.1233      0.0000      0.0000     -0.0000
     Y      0.0000      0.0000      0.0000      0.0000      0.0000      0.0000
 Anlyt      0.0000      0.0000     -0.6077     -0.7588      0.0000      0.0000
            0.0000      0.0000      0.0000      0.0000      0.0000      0.0000
            0.0000

     9      0.0041      0.0019      0.0012      0.0000      0.0000      0.0063
     Z      0.0000      0.0000      0.0000     -0.0087      0.0000      0.0000
 Anlyt      0.0000      0.0000     -0.0003     -0.0003      0.0000      0.0000
            0.0000      0.0000      0.0000      0.0000      0.0000      0.0000
            0.0000

 Cartesian Gradient Breakdown over Individual Atoms :

  Type      Atom              dE/dX       dE/dY       dE/dZ          Norm

 Anlyt         1            25.3490    -15.3643     -0.0138       29.6417
 Anlyt         2           -10.8406    -33.2346     -0.0600       34.9580
 Anlyt         3            10.5814     26.8624      0.0544       28.8714
 Anlyt         4            32.5304      2.3201     -0.0307       32.6130
 Anlyt         5           -11.6755     12.2338      0.0147       16.9110
 Anlyt         6            -2.8085     -0.3332      0.0046        2.8282
 Anlyt         7            -1.4650      0.6255      0.0037        1.5929
 Anlyt         8           -24.3022     -2.1064      0.0229       24.3933
 Anlyt         9           -17.3691      8.9968      0.0042       19.5609

 Total Gradient Norm and RMS Gradient per Atom :

 Anlyt      Total Gradient Norm Value               72.6088

 Anlyt      RMS Gradient over All Atoms             24.2029
