
     ######################################################################
   ##########################################################################
  ###                                                                      ###
 ###            TINKER  ---  Software Tools for Molecular Design            ###
 ##                                                                          ##
 ##                        Version 7.1  February 2015                        ##
 ##                                                                          ##
 ##               Copyright (c)  Jay William Ponder  1990-2015               ##
 ###                           All Rights Reserved                          ###
  ###                                                                      ###
   ##########################################################################
     ######################################################################


 Total Potential Energy :                 16.5628 Kcal/mole

 Potential Energy Breakdown by Individual Components :

  Energy      EB          EA          EBA         EUB         EAA         EOPB
  Terms       EOPD        EID         EIT         ET          EPT         EBT
              EAT         ETT         EV          EC          ECD         ED
              EM          EP          ER          ES          ELF         EG
              EX

            0.7967      4.8656     -0.2052      0.0000      0.0000      0.0000
            0.0000      0.0000      0.0000      3.4560      0.0000      0.0000
            0.0000      0.0000      5.3814      2.2684      0.0000      0.0000
            0.0000      0.0000      0.0000      0.0000      0.0000      0.0000
            0.0000

 Cartesian Gradient Breakdown by Individual Components :

  Atom      d EB        d EA        d EBA       d EUB       d EAA       d EOPB
  Axis      d EOPD      d EID       d EIT       d ET        d EPT       d EBT
  Type      d EAT       d ETT       d EV        d EC        d ECD       d ED
            d EM        d EP        d ER        d ES        d ELF       d EG
            d EX

     1     20.8184     12.0396    -10.5273      0.0000      0.0000      0.0017
     X      0.0000      0.0000      0.0000      0.1410      0.0000      0.0000
 Anlyt      0.0000      0.0000     -1.0004      0.0000      0.0000      0.0000
            0.0000      0.0000      0.0000      0.0000      0.0000      0.0000
            0.0000

     1     32.9783      9.1866    -20.3764      0.0000      0.0000     -0.0081
     Y      0.0000      0.0000      0.0000     -0.0980      0.0000      0.0000
 Anlyt      0.0000      0.0000      4.0594      0.0000      0.0000      0.0000
            0.0000      0.0000      0.0000      0.0000      0.0000      0.0000
            0.0000

     1      4.2824      0.8939     -2.7083      0.0000      0.0000      0.0543
     Z      0.0000      0.0000      0.0000     -0.0711      0.0000      0.0000
 Anlyt      0.0000      0.0000      0.5799      0.0000      0.0000      0.0000
            0.0000      0.0000      0.0000      0.0000      0.0000      0.0000
            0.0000

     2    -14.4803     16.3682     -2.1542      0.0000      0.0000     -0.0005
     X      0.0000      0.0000      0.0000     -0.0297      0.0000      0.0000
 Anlyt      0.0000      0.0000      6.6046      0.2372      0.0000      0.0000
            0.0000      0.0000      0.0000      0.0000      0.0000      0.0000
            0.0000

     2     -3.2854    -17.0674      2.3493      0.0000      0.0000      0.0025
     Y      0.0000      0.0000      0.0000      0.8508      0.0000      0.0000
 Anlyt      0.0000      0.0000      6.1458      0.3759      0.0000      0.0000
            0.0000      0.0000      0.0000      0.0000      0.0000      0.0000
            0.0000

     2      0.2317     -2.6982      0.3391      0.0000      0.0000     -0.0168
     Z      0.0000      0.0000      0.0000      0.1320      0.0000      0.0000
 Anlyt      0.0000      0.0000      0.5683      0.0489      0.0000      0.0000
            0.0000      0.0000      0.0000      0.0000      0.0000      0.0000
            0.0000

     3     -1.2645     -4.9604     -0.4829      0.0000      0.0000      0.0000
     X      0.0000      0.0000      0.0000      0.0054      0.0000      0.0000
 Anlyt      0.0000      0.0000      2.1643      0.0000      0.0000      0.0000
            0.0000      0.0000      0.0000      0.0000      0.0000      0.0000
            0.0000

     3      1.7763     -0.2229     -0.2744      0.0000      0.0000      0.0000
     Y      0.0000      0.0000      0.0000     -0.2803      0.0000      0.0000
 Anlyt      0.0000      0.0000      1.6158      0.0000      0.0000      0.0000
            0.0000      0.0000      0.0000      0.0000      0.0000      0.0000
            0.0000

     3     -2.3325      2.5194      0.2557      0.0000      0.0000      0.0000
     Z      0.0000      0.0000      0.0000     -0.2164      0.0000      0.0000
 Anlyt      0.0000      0.0000      0.8537      0.0000      0.0000      0.0000
            0.0000      0.0000      0.0000      0.0000      0.0000      0.0000
            0.0000

     4     -0.0865     -5.8161     -0.7443      0.0000      0.0000      0.0000
     X      0.0000      0.0000      0.0000     -0.0001      0.0000      0.0000
 Anlyt      0.0000      0.0000      3.8437      0.0000      0.0000      0.0000
            0.0000      0.0000      0.0000      0.0000      0.0000      0.0000
            0.0000

     4     -0.2363      2.0990     -0.4090      0.0000      0.0000      0.0000
     Y      0.0000      0.0000      0.0000      0.0002      0.0000      0.0000
 Anlyt      0.0000      0.0000     -0.5916      0.0000      0.0000      0.0000
            0.0000      0.0000      0.0000      0.0000      0.0000      0.0000
            0.0000

     4     -0.0258      0.2801     -0.0223      0.0000      0.0000      0.0000
     Z      0.0000      0.0000      0.0000     -0.0020      0.0000      0.0000
 Anlyt      0.0000      0.0000     -0.2392      0.0000      0.0000      0.0000
            0.0000      0.0000      0.0000      0.0000      0.0000      0.0000
            0.0000

     5     -1.0341     -5.0742     -0.5149      0.0000      0.0000      0.0000
     X      0.0000      0.0000      0.0000      0.0205      0.0000      0.0000
 Anlyt      0.0000      0.0000      2.2904      0.0000      0.0000      0.0000
            0.0000      0.0000      0.0000      0.0000      0.0000      0.0000
            0.0000

     5      1.0897      0.4740     -0.1950      0.0000      0.0000      0.0000
     Y      0.0000      0.0000      0.0000     -0.4074      0.0000      0.0000
 Anlyt      0.0000      0.0000      1.7932      0.0000      0.0000      0.0000
            0.0000      0.0000      0.0000      0.0000      0.0000      0.0000
            0.0000

     5      2.5553     -2.2556     -0.2360      0.0000      0.0000      0.0000
     Z      0.0000      0.0000      0.0000      0.1820      0.0000      0.0000
 Anlyt      0.0000      0.0000     -0.5417      0.0000      0.0000      0.0000
            0.0000      0.0000      0.0000      0.0000      0.0000      0.0000
            0.0000

     6      4.0802      3.9605     -1.9353      0.0000      0.0000     -0.0005
     X      0.0000      0.0000      0.0000     -0.7299      0.0000      0.0000
 Anlyt      0.0000      0.0000     -3.3638     -0.0469      0.0000      0.0000
            0.0000      0.0000      0.0000      0.0000      0.0000      0.0000
            0.0000

     6     -9.5832     11.2034      0.9155      0.0000      0.0000      0.0024
     Y      0.0000      0.0000      0.0000     -0.3923      0.0000      0.0000
 Anlyt      0.0000      0.0000      0.4637      0.2474      0.0000      0.0000
            0.0000      0.0000      0.0000      0.0000      0.0000      0.0000
            0.0000

     6     -1.5238      1.5671      0.1936      0.0000      0.0000     -0.0162
     Z      0.0000      0.0000      0.0000      0.1298      0.0000      0.0000
 Anlyt      0.0000      0.0000      0.2056      0.0385      0.0000      0.0000
            0.0000      0.0000      0.0000      0.0000      0.0000      0.0000
            0.0000

     7     -1.5310     -3.2137      0.4729      0.0000      0.0000      0.0000
     X      0.0000      0.0000      0.0000      0.3078      0.0000      0.0000
 Anlyt      0.0000      0.0000     -1.3682      0.0000      0.0000      0.0000
            0.0000      0.0000      0.0000      0.0000      0.0000      0.0000
            0.0000

     7     -3.2374     -2.2343      0.0946      0.0000      0.0000      0.0000
     Y      0.0000      0.0000      0.0000      0.1183      0.0000      0.0000
 Anlyt      0.0000      0.0000      1.3921      0.0000      0.0000      0.0000
            0.0000      0.0000      0.0000      0.0000      0.0000      0.0000
            0.0000

     7      3.7174     -3.2694     -0.6940      0.0000      0.0000      0.0000
     Z      0.0000      0.0000      0.0000      0.2298      0.0000      0.0000
 Anlyt      0.0000      0.0000     -0.4229      0.0000      0.0000      0.0000
            0.0000      0.0000      0.0000      0.0000      0.0000      0.0000
            0.0000

     8     -1.8142     -3.0579      0.5200      0.0000      0.0000      0.0000
     X      0.0000      0.0000      0.0000      0.2909      0.0000      0.0000
 Anlyt      0.0000      0.0000     -1.2971      0.0000      0.0000      0.0000
            0.0000      0.0000      0.0000      0.0000      0.0000      0.0000
            0.0000

     8     -2.0430     -3.0767     -0.1050      0.0000      0.0000      0.0000
     Y      0.0000      0.0000      0.0000      0.1813      0.0000      0.0000
 Anlyt      0.0000      0.0000      1.1909      0.0000      0.0000      0.0000
            0.0000      0.0000      0.0000      0.0000      0.0000      0.0000
            0.0000

     8     -4.4330      2.6693      0.6677      0.0000      0.0000      0.0000
     Z      0.0000      0.0000      0.0000     -0.2026      0.0000      0.0000
 Anlyt      0.0000      0.0000      0.8910      0.0000      0.0000      0.0000
            0.0000      0.0000      0.0000      0.0000      0.0000      0.0000
            0.0000

     9      6.6725      0.2646      2.4388      0.0000      0.0000      0.0000
     X      0.0000      0.0000      0.0000     -0.0001      0.0000      0.0000
 Anlyt      0.0000      0.0000     -0.9062      0.0000      0.0000      0.0000
            0.0000      0.0000      0.0000      0.0000      0.0000      0.0000
            0.0000

     9      0.2816     -6.9210     -0.3727      0.0000      0.0000      0.0000
     Y      0.0000      0.0000      0.0000      0.0006      0.0000      0.0000
 Anlyt      0.0000      0.0000      1.9833      0.0000      0.0000      0.0000
            0.0000      0.0000      0.0000      0.0000      0.0000      0.0000
            0.0000

     9     -0.1773     -1.0331     -0.1347      0.0000      0.0000      0.0000
     Z      0.0000      0.0000      0.0000     -0.0038      0.0000      0.0000
 Anlyt      0.0000      0.0000      0.3266      0.0000      0.0000      0.0000
            0.0000      0.0000      0.0000      0.0000      0.0000      0.0000
            0.0000

    10    -11.7511    -21.4043     20.6366      0.0000      0.0000     -0.0007
     X      0.0000      0.0000      0.0000     -0.1744      0.0000      0.0000
 Anlyt      0.0000      0.0000     -0.9255      0.0000      0.0000      0.0000
            0.0000      0.0000      0.0000      0.0000      0.0000      0.0000
            0.0000

    10    -17.0351      0.5403      6.2398      0.0000      0.0000      0.0032
     Y      0.0000      0.0000      0.0000     -0.0452      0.0000      0.0000
 Anlyt      0.0000      0.0000     -2.8055      0.0000      0.0000      0.0000
            0.0000      0.0000      0.0000      0.0000      0.0000      0.0000
            0.0000

    10     -2.1761      1.2481      0.2732      0.0000      0.0000     -0.0213
     Z      0.0000      0.0000      0.0000     -0.3064      0.0000      0.0000
 Anlyt      0.0000      0.0000     -0.3735      0.0000      0.0000      0.0000
            0.0000      0.0000      0.0000      0.0000      0.0000      0.0000
            0.0000

    11      5.8905     14.8596     -8.2499      0.0000      0.0000      0.0000
     X      0.0000      0.0000      0.0000      0.7416      0.0000      0.0000
 Anlyt      0.0000      0.0000     -5.3538     -0.1903      0.0000      0.0000
            0.0000      0.0000      0.0000      0.0000      0.0000      0.0000
            0.0000

    11     -2.2103     -3.3614     13.1560      0.0000      0.0000      0.0000
     Y      0.0000      0.0000      0.0000      0.3984      0.0000      0.0000
 Anlyt      0.0000      0.0000     -7.5269     -0.6233      0.0000      0.0000
            0.0000      0.0000      0.0000      0.0000      0.0000      0.0000
            0.0000

    11     -0.7892     -2.0717      2.3434      0.0000      0.0000      0.0000
     Z      0.0000      0.0000      0.0000      0.0727      0.0000      0.0000
 Anlyt      0.0000      0.0000     -0.8961     -0.0874      0.0000      0.0000
            0.0000      0.0000      0.0000      0.0000      0.0000      0.0000
            0.0000

    12     -3.3173     -2.0351      0.4055      0.0000      0.0000      0.0000
     X      0.0000      0.0000      0.0000     -0.2138      0.0000      0.0000
 Anlyt      0.0000      0.0000     -0.3334      0.0000      0.0000      0.0000
            0.0000      0.0000      0.0000      0.0000      0.0000      0.0000
            0.0000

    12      1.0461      4.8757     -0.2377      0.0000      0.0000      0.0000
     Y      0.0000      0.0000      0.0000     -0.1436      0.0000      0.0000
 Anlyt      0.0000      0.0000     -4.4464      0.0000      0.0000      0.0000
            0.0000      0.0000      0.0000      0.0000      0.0000      0.0000
            0.0000

    12     -3.7038      3.1999      0.1893      0.0000      0.0000      0.0000
     Z      0.0000      0.0000      0.0000      0.1509      0.0000      0.0000
 Anlyt      0.0000      0.0000      0.5423      0.0000      0.0000      0.0000
            0.0000      0.0000      0.0000      0.0000      0.0000      0.0000
            0.0000

    13     -2.5634     -2.0279      0.4223      0.0000      0.0000      0.0000
     X      0.0000      0.0000      0.0000     -0.3693      0.0000      0.0000
 Anlyt      0.0000      0.0000     -0.3411      0.0000      0.0000      0.0000
            0.0000      0.0000      0.0000      0.0000      0.0000      0.0000
            0.0000

    13      0.0360      4.6002     -0.1756      0.0000      0.0000      0.0000
     Y      0.0000      0.0000      0.0000     -0.1683      0.0000      0.0000
 Anlyt      0.0000      0.0000     -3.1487      0.0000      0.0000      0.0000
            0.0000      0.0000      0.0000      0.0000      0.0000      0.0000
            0.0000

    13      4.3558     -1.2315     -0.4166      0.0000      0.0000      0.0000
     Z      0.0000      0.0000      0.0000     -0.2159      0.0000      0.0000
 Anlyt      0.0000      0.0000     -1.4783      0.0000      0.0000      0.0000
            0.0000      0.0000      0.0000      0.0000      0.0000      0.0000
            0.0000

    14      0.3808      0.0970     -0.2875      0.0000      0.0000      0.0000
     X      0.0000      0.0000      0.0000      0.0102      0.0000      0.0000
 Anlyt      0.0000      0.0000     -0.0133      0.0000      0.0000      0.0000
            0.0000      0.0000      0.0000      0.0000      0.0000      0.0000
            0.0000

    14      0.4228     -0.0955     -0.6094      0.0000      0.0000      0.0000
     Y      0.0000      0.0000      0.0000     -0.0146      0.0000      0.0000
 Anlyt      0.0000      0.0000     -0.1250      0.0000      0.0000      0.0000
            0.0000      0.0000      0.0000      0.0000      0.0000      0.0000
            0.0000

    14      0.0190      0.1815     -0.0501      0.0000      0.0000      0.0000
     Z      0.0000      0.0000      0.0000      0.1210      0.0000      0.0000
 Anlyt      0.0000      0.0000     -0.0157      0.0000      0.0000      0.0000
            0.0000      0.0000      0.0000      0.0000      0.0000      0.0000
            0.0000

 Cartesian Gradient Breakdown over Individual Atoms :

  Type      Atom              dE/dX       dE/dY       dE/dZ          Norm

 Anlyt         1            21.4730     25.7418      3.0311       33.6588
 Anlyt         2             6.5452    -10.6285     -1.3950       12.5599
 Anlyt         3            -4.5381      2.6146      1.0799        5.3476
 Anlyt         4            -2.8033      0.8623     -0.0092        2.9329
 Anlyt         5            -4.3124      2.7545     -0.2960        5.1256
 Anlyt         6             1.9644      2.8569      0.5945        3.5177
 Anlyt         7            -5.3321     -3.8667     -0.4391        6.6012
 Anlyt         8            -5.3583     -3.8524     -0.4075        6.6120
 Anlyt         9             8.4696     -5.0283     -1.0223        9.9027
 Anlyt        10           -13.6194    -13.1025     -1.3560       18.9473
 Anlyt        11             7.6977     -0.1675     -1.4283        7.8309
 Anlyt        12            -5.4941      1.0940      0.3785        5.6148
 Anlyt        13            -4.8794      1.1436      1.0135        5.1131
 Anlyt        14             0.1872     -0.4218      0.2558        0.5276

 Total Gradient Norm and RMS Gradient per Atom :

 Anlyt      Total Gradient Norm Value               45.0571

 Anlyt      RMS Gradient over All Atoms             12.0420
