
     ######################################################################
   ##########################################################################
  ###                                                                      ###
 ###            TINKER  ---  Software Tools for Molecular Design            ###
 ##                                                                          ##
 ##                        Version 7.1  February 2015                        ##
 ##                                                                          ##
 ##               Copyright (c)  Jay William Ponder  1990-2015               ##
 ###                           All Rights Reserved                          ###
  ###                                                                      ###
   ##########################################################################
     ######################################################################


 Total Potential Energy :                 17.2622 Kcal/mole

 Potential Energy Breakdown by Individual Components :

  Energy      EB          EA          EBA         EUB         EAA         EOPB
  Terms       EOPD        EID         EIT         ET          EPT         EBT
              EAT         ETT         EV          EC          ECD         ED
              EM          EP          ER          ES          ELF         EG
              EX

            0.9413      5.4403     -0.2232      0.0000      0.0000      0.0170
            0.0000      0.0000      0.0000      3.3955      0.0000      0.0000
            0.0000      0.0000      5.4267      2.2646      0.0000      0.0000
            0.0000      0.0000      0.0000      0.0000      0.0000      0.0000
            0.0000

 Cartesian Gradient Breakdown by Individual Components :

  Atom      d EB        d EA        d EBA       d EUB       d EAA       d EOPB
  Axis      d EOPD      d EID       d EIT       d ET        d EPT       d EBT
  Type      d EAT       d ETT       d EV        d EC        d ECD       d ED
            d EM        d EP        d ER        d ES        d ELF       d EG
            d EX

     1     20.6021     12.0863    -10.8431      0.0000      0.0000      0.1517
     X      0.0000      0.0000      0.0000      0.1005      0.0000      0.0000
 Anlyt      0.0000      0.0000     -1.0940      0.0000      0.0000      0.0000
            0.0000      0.0000      0.0000      0.0000      0.0000      0.0000
            0.0000

     1     34.3021      8.2569    -20.4296      0.0000      0.0000      0.7971
     Y      0.0000      0.0000      0.0000     -0.1610      0.0000      0.0000
 Anlyt      0.0000      0.0000      3.9618      0.0000      0.0000      0.0000
            0.0000      0.0000      0.0000      0.0000      0.0000      0.0000
            0.0000

     1     10.7457      5.8915     -6.5136      0.0000      0.0000     -2.7940
     Z      0.0000      0.0000      0.0000      0.1985      0.0000      0.0000
 Anlyt      0.0000      0.0000      0.9419      0.0000      0.0000      0.0000
            0.0000      0.0000      0.0000      0.0000      0.0000      0.0000
            0.0000

     2    -15.0338     16.6780     -1.8057      0.0000      0.0000     -0.0392
     X      0.0000      0.0000      0.0000     -0.0171      0.0000      0.0000
 Anlyt      0.0000      0.0000      6.6112      0.2295      0.0000      0.0000
            0.0000      0.0000      0.0000      0.0000      0.0000      0.0000
            0.0000

     2     -3.2380    -17.0836      2.3676      0.0000      0.0000     -0.2461
     Y      0.0000      0.0000      0.0000      0.8859      0.0000      0.0000
 Anlyt      0.0000      0.0000      5.9832      0.3631      0.0000      0.0000
            0.0000      0.0000      0.0000      0.0000      0.0000      0.0000
            0.0000

     2     -0.2505     -2.1332      0.1344      0.0000      0.0000      0.8633
     Z      0.0000      0.0000      0.0000     -0.3194      0.0000      0.0000
 Anlyt      0.0000      0.0000      1.5715      0.1183      0.0000      0.0000
            0.0000      0.0000      0.0000      0.0000      0.0000      0.0000
            0.0000

     3     -1.1772     -4.9251     -0.4953      0.0000      0.0000      0.0000
     X      0.0000      0.0000      0.0000      0.0148      0.0000      0.0000
 Anlyt      0.0000      0.0000      1.5931      0.0000      0.0000      0.0000
            0.0000      0.0000      0.0000      0.0000      0.0000      0.0000
            0.0000

     3      2.0209     -0.5510     -0.3285      0.0000      0.0000      0.0000
     Y      0.0000      0.0000      0.0000     -0.1742      0.0000      0.0000
 Anlyt      0.0000      0.0000      1.1628      0.0000      0.0000      0.0000
            0.0000      0.0000      0.0000      0.0000      0.0000      0.0000
            0.0000

     3     -2.6509      1.7670      0.2935      0.0000      0.0000      0.0000
     Z      0.0000      0.0000      0.0000     -0.1394      0.0000      0.0000
 Anlyt      0.0000      0.0000      1.0212      0.0000      0.0000      0.0000
            0.0000      0.0000      0.0000      0.0000      0.0000      0.0000
            0.0000

     4     -0.0991     -5.7927     -0.7351      0.0000      0.0000      0.0000
     X      0.0000      0.0000      0.0000     -0.0027      0.0000      0.0000
 Anlyt      0.0000      0.0000      4.0481      0.0000      0.0000      0.0000
            0.0000      0.0000      0.0000      0.0000      0.0000      0.0000
            0.0000

     4     -0.2807      2.1295     -0.3322      0.0000      0.0000      0.0000
     Y      0.0000      0.0000      0.0000     -0.0080      0.0000      0.0000
 Anlyt      0.0000      0.0000     -0.5899      0.0000      0.0000      0.0000
            0.0000      0.0000      0.0000      0.0000      0.0000      0.0000
            0.0000

     4     -0.0473     -0.4971     -0.0636      0.0000      0.0000      0.0000
     Z      0.0000      0.0000      0.0000      0.0532      0.0000      0.0000
 Anlyt      0.0000      0.0000     -0.2709      0.0000      0.0000      0.0000
            0.0000      0.0000      0.0000      0.0000      0.0000      0.0000
            0.0000

     5     -0.9946     -5.1539     -0.5756      0.0000      0.0000      0.0000
     X      0.0000      0.0000      0.0000      0.0079      0.0000      0.0000
 Anlyt      0.0000      0.0000      2.7887      0.0000      0.0000      0.0000
            0.0000      0.0000      0.0000      0.0000      0.0000      0.0000
            0.0000

     5      0.8106      0.3993     -0.1413      0.0000      0.0000      0.0000
     Y      0.0000      0.0000      0.0000     -0.4955      0.0000      0.0000
 Anlyt      0.0000      0.0000      2.0909      0.0000      0.0000      0.0000
            0.0000      0.0000      0.0000      0.0000      0.0000      0.0000
            0.0000

     5      1.9663     -2.7717     -0.1503      0.0000      0.0000      0.0000
     Z      0.0000      0.0000      0.0000      0.2082      0.0000      0.0000
 Anlyt      0.0000      0.0000     -0.2000      0.0000      0.0000      0.0000
            0.0000      0.0000      0.0000      0.0000      0.0000      0.0000
            0.0000

     6      0.8219      5.7561     -2.2756      0.0000      0.0000     -0.0488
     X      0.0000      0.0000      0.0000     -0.6631      0.0000      0.0000
 Anlyt      0.0000      0.0000     -3.4419     -0.0504      0.0000      0.0000
            0.0000      0.0000      0.0000      0.0000      0.0000      0.0000
            0.0000

     6    -10.2889     13.4958      0.5884      0.0000      0.0000     -0.2305
     Y      0.0000      0.0000      0.0000     -0.5655      0.0000      0.0000
 Anlyt      0.0000      0.0000      0.4443      0.2398      0.0000      0.0000
            0.0000      0.0000      0.0000      0.0000      0.0000      0.0000
            0.0000

     6     -3.3367     -3.3765      1.3527      0.0000      0.0000      0.8332
     Z      0.0000      0.0000      0.0000      0.8703      0.0000      0.0000
 Anlyt      0.0000      0.0000      0.0872      0.0666      0.0000      0.0000
            0.0000      0.0000      0.0000      0.0000      0.0000      0.0000
            0.0000

     7     -1.5345     -4.8240      0.5497      0.0000      0.0000      0.0000
     X      0.0000      0.0000      0.0000      0.3403      0.0000      0.0000
 Anlyt      0.0000      0.0000     -1.0902      0.0000      0.0000      0.0000
            0.0000      0.0000      0.0000      0.0000      0.0000      0.0000
            0.0000

     7     -3.9016     -0.5557      0.5444      0.0000      0.0000      0.0000
     Y      0.0000      0.0000      0.0000      0.1244      0.0000      0.0000
 Anlyt      0.0000      0.0000      1.2443      0.0000      0.0000      0.0000
            0.0000      0.0000      0.0000      0.0000      0.0000      0.0000
            0.0000

     7      4.4076     -2.1714     -1.2886      0.0000      0.0000      0.0000
     Z      0.0000      0.0000      0.0000      0.2286      0.0000      0.0000
 Anlyt      0.0000      0.0000     -0.3479      0.0000      0.0000      0.0000
            0.0000      0.0000      0.0000      0.0000      0.0000      0.0000
            0.0000

     8     -1.9200     -2.7733      0.4835      0.0000      0.0000      0.0000
     X      0.0000      0.0000      0.0000      0.2026      0.0000      0.0000
 Anlyt      0.0000      0.0000     -1.9051      0.0000      0.0000      0.0000
            0.0000      0.0000      0.0000      0.0000      0.0000      0.0000
            0.0000

     8     -1.8374     -4.1223     -0.1674      0.0000      0.0000      0.0000
     Y      0.0000      0.0000      0.0000      0.1481      0.0000      0.0000
 Anlyt      0.0000      0.0000      1.5315      0.0000      0.0000      0.0000
            0.0000      0.0000      0.0000      0.0000      0.0000      0.0000
            0.0000

     8     -4.0001      3.2247      0.5494      0.0000      0.0000      0.0000
     Z      0.0000      0.0000      0.0000     -0.1653      0.0000      0.0000
 Anlyt      0.0000      0.0000      1.1912      0.0000      0.0000      0.0000
            0.0000      0.0000      0.0000      0.0000      0.0000      0.0000
            0.0000

     9     10.8946      0.2579      2.8343      0.0000      0.0000      0.0000
     X      0.0000      0.0000      0.0000     -0.0244      0.0000      0.0000
 Anlyt      0.0000      0.0000     -0.7594      0.0000      0.0000      0.0000
            0.0000      0.0000      0.0000      0.0000      0.0000      0.0000
            0.0000

     9      0.4512     -8.7724     -0.3900      0.0000      0.0000      0.0000
     Y      0.0000      0.0000      0.0000      0.0534      0.0000      0.0000
 Anlyt      0.0000      0.0000      1.5718      0.0000      0.0000      0.0000
            0.0000      0.0000      0.0000      0.0000      0.0000      0.0000
            0.0000

     9     -0.8961     -1.2815     -0.3714      0.0000      0.0000      0.0000
     Z      0.0000      0.0000      0.0000     -0.2703      0.0000      0.0000
 Anlyt      0.0000      0.0000      0.5156      0.0000      0.0000      0.0000
            0.0000      0.0000      0.0000      0.0000      0.0000      0.0000
            0.0000

    10    -12.0940    -22.0312     20.8443      0.0000      0.0000     -0.0637
     X      0.0000      0.0000      0.0000     -0.0646      0.0000      0.0000
 Anlyt      0.0000      0.0000     -1.0619      0.0000      0.0000      0.0000
            0.0000      0.0000      0.0000      0.0000      0.0000      0.0000
            0.0000

    10    -17.1251      0.7533      6.4436      0.0000      0.0000     -0.3205
     Y      0.0000      0.0000      0.0000      0.3372      0.0000      0.0000
 Anlyt      0.0000      0.0000     -2.4304      0.0000      0.0000      0.0000
            0.0000      0.0000      0.0000      0.0000      0.0000      0.0000
            0.0000

    10     -5.6926      0.4989      2.9216      0.0000      0.0000      1.0975
     Z      0.0000      0.0000      0.0000     -1.4339      0.0000      0.0000
 Anlyt      0.0000      0.0000     -0.7020      0.0000      0.0000      0.0000
            0.0000      0.0000      0.0000      0.0000      0.0000      0.0000
            0.0000

    11      5.7827     14.2309     -8.4687      0.0000      0.0000      0.0000
     X      0.0000      0.0000      0.0000      0.6244      0.0000      0.0000
 Anlyt      0.0000      0.0000     -5.2497     -0.1791      0.0000      0.0000
            0.0000      0.0000      0.0000      0.0000      0.0000      0.0000
            0.0000

    11     -2.2726     -2.7524     12.8537      0.0000      0.0000      0.0000
     Y      0.0000      0.0000      0.0000      0.1980      0.0000      0.0000
 Anlyt      0.0000      0.0000     -7.2973     -0.6029      0.0000      0.0000
            0.0000      0.0000      0.0000      0.0000      0.0000      0.0000
            0.0000

    11     -1.3178     -3.4179      3.7302      0.0000      0.0000      0.0000
     Z      0.0000      0.0000      0.0000      0.6240      0.0000      0.0000
 Anlyt      0.0000      0.0000     -2.1135     -0.1849      0.0000      0.0000
            0.0000      0.0000      0.0000      0.0000      0.0000      0.0000
            0.0000

    12     -3.3817     -2.2027      0.3166      0.0000      0.0000      0.0000
     X      0.0000      0.0000      0.0000     -0.0791      0.0000      0.0000
 Anlyt      0.0000      0.0000     -0.2414      0.0000      0.0000      0.0000
            0.0000      0.0000      0.0000      0.0000      0.0000      0.0000
            0.0000

    12      1.2394      5.3500     -0.2231      0.0000      0.0000      0.0000
     Y      0.0000      0.0000      0.0000     -0.0617      0.0000      0.0000
 Anlyt      0.0000      0.0000     -5.3951      0.0000      0.0000      0.0000
            0.0000      0.0000      0.0000      0.0000      0.0000      0.0000
            0.0000

    12     -3.3412      4.2140      0.0403      0.0000      0.0000      0.0000
     Z      0.0000      0.0000      0.0000      0.0572      0.0000      0.0000
 Anlyt      0.0000      0.0000     -0.1690      0.0000      0.0000      0.0000
            0.0000      0.0000      0.0000      0.0000      0.0000      0.0000
            0.0000

    13     -2.3120     -1.5059      0.4539      0.0000      0.0000      0.0000
     X      0.0000      0.0000      0.0000     -0.4825      0.0000      0.0000
 Anlyt      0.0000      0.0000     -0.1851      0.0000      0.0000      0.0000
            0.0000      0.0000      0.0000      0.0000      0.0000      0.0000
            0.0000

    13     -0.3914      3.6765     -0.1405      0.0000      0.0000      0.0000
     Y      0.0000      0.0000      0.0000     -0.2088      0.0000      0.0000
 Anlyt      0.0000      0.0000     -2.1494      0.0000      0.0000      0.0000
            0.0000      0.0000      0.0000      0.0000      0.0000      0.0000
            0.0000

    13      4.3646     -0.4680     -0.5353      0.0000      0.0000      0.0000
     Z      0.0000      0.0000      0.0000     -0.2743      0.0000      0.0000
 Anlyt      0.0000      0.0000     -1.4947      0.0000      0.0000      0.0000
            0.0000      0.0000      0.0000      0.0000      0.0000      0.0000
            0.0000

    14      0.4457      0.1997     -0.2831      0.0000      0.0000      0.0000
     X      0.0000      0.0000      0.0000      0.0430      0.0000      0.0000
 Anlyt      0.0000      0.0000     -0.0122      0.0000      0.0000      0.0000
            0.0000      0.0000      0.0000      0.0000      0.0000      0.0000
            0.0000

    14      0.5116     -0.2240     -0.6449      0.0000      0.0000      0.0000
     Y      0.0000      0.0000      0.0000     -0.0723      0.0000      0.0000
 Anlyt      0.0000      0.0000     -0.1285      0.0000      0.0000      0.0000
            0.0000      0.0000      0.0000      0.0000      0.0000      0.0000
            0.0000

    14      0.0491      0.5214     -0.0993      0.0000      0.0000      0.0000
     Z      0.0000      0.0000      0.0000      0.3626      0.0000      0.0000
 Anlyt      0.0000      0.0000     -0.0305      0.0000      0.0000      0.0000
            0.0000      0.0000      0.0000      0.0000      0.0000      0.0000
            0.0000

 Cartesian Gradient Breakdown over Individual Atoms :

  Type      Atom              dE/dX       dE/dY       dE/dZ          Norm

 Anlyt         1            21.0035     26.7273      8.4699       35.0319
 Anlyt         2             6.6229    -10.9679     -0.0156       12.8124
 Anlyt         3            -4.9897      2.1299      0.2914        5.4331
 Anlyt         4            -2.5815      0.9186     -0.8258        2.8618
 Anlyt         5            -3.9276      2.6640     -0.9475        4.8395
 Anlyt         6             0.0981      3.6835     -3.5033        5.0843
 Anlyt         7            -6.5587     -2.5442      0.8283        7.0834
 Anlyt         8            -5.9122     -4.4475      0.7998        7.4414
 Anlyt         9            13.2029     -7.0861     -2.3038       15.1604
 Anlyt        10           -14.4712    -12.3419     -3.3105       19.3054
 Anlyt        11             6.7404      0.1264     -2.6800        7.2548
 Anlyt        12            -5.5883      0.9095      0.8014        5.7183
 Anlyt        13            -4.0316      0.7864      1.5923        4.4054
 Anlyt        14             0.3930     -0.5580      0.8033        1.0540

 Total Gradient Norm and RMS Gradient per Atom :

 Anlyt      Total Gradient Norm Value               47.8780

 Anlyt      RMS Gradient over All Atoms             12.7959
