 Entering Gaussian System, Link 0=g09
 Initial command:
 /mnt/data/applications/G09/g09/l1.exe "/scratch/Gau-14745.inp" -scrdir="/scratch/"
 Entering Link 1 = /mnt/data/applications/G09/g09/l1.exe PID=     14746.
  
 Copyright (c) 1988,1990,1992,1993,1995,1998,2003,2009,2013,
            Gaussian, Inc.  All Rights Reserved.
  
 This is part of the Gaussian(R) 09 program.  It is based on
 the Gaussian(R) 03 system (copyright 2003, Gaussian, Inc.),
 the Gaussian(R) 98 system (copyright 1998, Gaussian, Inc.),
 the Gaussian(R) 94 system (copyright 1995, Gaussian, Inc.),
 the Gaussian 92(TM) system (copyright 1992, Gaussian, Inc.),
 the Gaussian 90(TM) system (copyright 1990, Gaussian, Inc.),
 the Gaussian 88(TM) system (copyright 1988, Gaussian, Inc.),
 the Gaussian 86(TM) system (copyright 1986, Carnegie Mellon
 University), and the Gaussian 82(TM) system (copyright 1983,
 Carnegie Mellon University). Gaussian is a federally registered
 trademark of Gaussian, Inc.
  
 This software contains proprietary and confidential information,
 including trade secrets, belonging to Gaussian, Inc.
  
 This software is provided under written license and may be
 used, copied, transmitted, or stored only in accord with that
 written license.
  
 The following legend is applicable only to US Government
 contracts under FAR:
  
                    RESTRICTED RIGHTS LEGEND
  
 Use, reproduction and disclosure by the US Government is
 subject to restrictions as set forth in subparagraphs (a)
 and (c) of the Commercial Computer Software - Restricted
 Rights clause in FAR 52.227-19.
  
 Gaussian, Inc.
 340 Quinnipiac St., Bldg. 40, Wallingford CT 06492
  
  
 ---------------------------------------------------------------
 Warning -- This program may not be used in any manner that
 competes with the business of Gaussian, Inc. or will provide
 assistance to any competitor of Gaussian, Inc.  The licensee
 of this program is prohibited from giving any competitor of
 Gaussian, Inc. access to this program.  By using this program,
 the user acknowledges that Gaussian, Inc. is engaged in the
 business of creating and licensing software in the field of
 computational chemistry and represents and warrants to the
 licensee that it is not a competitor of Gaussian, Inc. and that
 it will not use this program in any manner prohibited above.
 ---------------------------------------------------------------
  

 Cite this work as:
 Gaussian 09, Revision D.01,
 M. J. Frisch, G. W. Trucks, H. B. Schlegel, G. E. Scuseria, 
 M. A. Robb, J. R. Cheeseman, G. Scalmani, V. Barone, B. Mennucci, 
 G. A. Petersson, H. Nakatsuji, M. Caricato, X. Li, H. P. Hratchian, 
 A. F. Izmaylov, J. Bloino, G. Zheng, J. L. Sonnenberg, M. Hada, 
 M. Ehara, K. Toyota, R. Fukuda, J. Hasegawa, M. Ishida, T. Nakajima, 
 Y. Honda, O. Kitao, H. Nakai, T. Vreven, J. A. Montgomery, Jr., 
 J. E. Peralta, F. Ogliaro, M. Bearpark, J. J. Heyd, E. Brothers, 
 K. N. Kudin, V. N. Staroverov, T. Keith, R. Kobayashi, J. Normand, 
 K. Raghavachari, A. Rendell, J. C. Burant, S. S. Iyengar, J. Tomasi, 
 M. Cossi, N. Rega, J. M. Millam, M. Klene, J. E. Knox, J. B. Cross, 
 V. Bakken, C. Adamo, J. Jaramillo, R. Gomperts, R. E. Stratmann, 
 O. Yazyev, A. J. Austin, R. Cammi, C. Pomelli, J. W. Ochterski, 
 R. L. Martin, K. Morokuma, V. G. Zakrzewski, G. A. Voth, 
 P. Salvador, J. J. Dannenberg, S. Dapprich, A. D. Daniels, 
 O. Farkas, J. B. Foresman, J. V. Ortiz, J. Cioslowski, 
 and D. J. Fox, Gaussian, Inc., Wallingford CT, 2013.
 
 ******************************************
 Gaussian 09:  EM64L-G09RevD.01 24-Apr-2013
                 7-Feb-2017 
 ******************************************
 %nprocshared=8
 Will use up to    8 processors via shared memory.
 %mem=8000MB
 %chk=C_5
 ----------------------------------------------------------------------
 #p opt=nomicro oniom(B3LYP/6-31G*:external="./sictwo_files/sictwo_g09d
 01") geom=connectivity nosymm scf(maxcyc=100)
 ----------------------------------------------------------------------
 1/14=-1,18=20,19=15,26=1,38=1,52=2,57=2/1,3;
 2/9=110,12=2,15=1,17=6,18=5,40=1/2;
 1/14=-1,18=20,19=15,26=1,38=1,52=2,53=3172/20;
 3/11=9,16=1,25=1,30=1,41=9900000,43=2,71=1/1;
 4/20=17,22=1,23=100,24=3,113=1,114=1/2;
 6/7=2,8=2,9=2,10=2/1;
 7/7=1,30=1,33=-1,44=-1/16;
 1/14=-1,18=20,19=15,26=1,52=2,53=2032/20;
 3/5=1,6=6,7=1,11=2,16=1,25=1,30=1,71=1,74=-5/1,2,3;
 4//1;
 5/5=2,7=100,38=5/2;
 6/7=2,8=2,9=2,10=2,28=1/1;
 7/7=1,30=1,33=-1/1,2,3,16;
 1/14=-1,18=20,19=15,26=1,52=2,53=1022/20;
 3/11=9,16=1,25=1,30=1,41=9900000,43=2,71=1/1;
 4/20=17,22=1,23=100,24=3,113=1,114=2/2;
 6/7=2,8=2,9=2,10=2/1;
 7/7=1,30=1,33=-1,44=-1/16;
 1/14=-1,18=20,19=15,26=1,52=2,53=3015/20;
 7/9=1,44=-1/16;
 1/14=-1,18=20,19=15,26=1,52=2/3(2);
 2/9=110,15=1/2;
 99//99;
 2/9=110,15=1/2;
 1/14=-1,18=20,19=15,26=1,52=2,53=3173/20;
 3/11=9,16=1,25=1,30=1,41=9900000,43=2,71=1/1;
 4/16=2,20=17,22=1,23=100,24=3,113=1,114=1/2;
 7/7=1,30=1,33=-1,44=-1/16;
 1/14=-1,18=20,19=15,26=1,52=2,53=2033/20;
 3/5=1,6=6,7=1,11=2,16=1,25=1,30=1,71=1,74=-5/1,2,3;
 4/5=5,16=3,69=1/1;
 5/5=2,7=100,38=5/2;
 7/7=1,30=1,33=-1/1,2,3,16;
 1/14=-1,18=20,19=15,26=1,52=2,53=1023/20;
 3/11=9,16=1,25=1,30=1,41=9900000,43=2,71=1/1;
 4/16=2,20=17,22=1,23=100,24=3,113=1,114=2/2;
 7/7=1,30=1,33=-1,44=-1/16;
 1/14=-1,18=20,19=15,26=1,52=2,53=3015/20;
 7/9=1,44=-1/16;
 1/14=-1,18=20,19=15,26=1,52=2/3(-16);
 2/9=110,15=1/2;
 99//99;
 Leave Link    1 at Tue Feb  7 16:28:52 2017, MaxMem=  1048576000 cpu:         0.9
 (Enter /mnt/data/applications/G09/g09/l101.exe)
 --------------------------------------
 ONIOM(QM:MM) OPT FREQ with SICTWO V1.0
 --------------------------------------
 Symbolic Z-matrix:
 Charge =  0 Multiplicity = 1 for low   level calculation on real  system.
 Charge =  0 Multiplicity = 1 for high  level calculation on model system.
 Charge =  0 Multiplicity = 1 for low   level calculation on model system.
 C-C_2                0    -2.36842   0.38462   0.       H 
 O-O_2                0    -1.74138   1.46353   0.16231  H 
 C-C_3                0    -3.90842   0.38462   0.       H 
 H-H_                 0    -4.26509   0.88902  -0.87365  H 
 H-H_                 0    -4.26509  -0.62419   0.       H 
 H-H_                 0    -4.26509   0.88902   0.87365  H 
 C-C_3                0    -1.60106  -0.93573  -0.19863  H 
 H-H_                 0    -1.80801  -1.59492   0.61841  H 
 H-H_                 0    -1.91129  -1.39428  -1.11426  H 
 C-C_3                0    -0.08937  -0.64736  -0.25533  L    H-H_     7     0.        0. 
 C-C_3                0     0.67586  -1.96331  -0.48837  L 
 H-H_                 0     0.36701  -2.39585  -1.41704  L 
 H-H_                 0     1.72669  -1.7641   -0.51968  L 
 H-H_                 0     0.46557  -2.64432   0.3097   L 
 C-C_3                0     0.20411   0.3285   -1.40996  L 
 H-H_                 0    -0.61954   0.33093  -2.09296  L 
 H-H_                 0     0.34466   1.31382  -1.01718  L 
 H-H_                 0     1.09113   0.01876  -1.92199  L 
 C-C_3                0     0.36363  -0.01891   1.07562  L 
 H-H_                 0    -0.35115  -0.24598   1.8388   L 
 H-H_                 0     1.31805  -0.41644   1.35118  L 
 H-H_                 0     0.43871   1.04235   0.96164  L 
 
 NAtoms=     22 NQM=       22 NQMF=       0 NMMI=      0 NMMIF=      0
                NMic=       0 NMicF=      0.
                    Isotopes and Nuclear Properties:
 (Nuclear quadrupole moments (NQMom) in fm**2, nuclear magnetic moments (NMagM)
  in nuclear magnetons)

  Atom         1           2           3           4           5           6           7           8           9          10
 IAtWgt=          12          16          12           1           1           1          12           1           1          12
 AtmWgt=  12.0000000  15.9949146  12.0000000   1.0078250   1.0078250   1.0078250  12.0000000   1.0078250   1.0078250  12.0000000
 NucSpn=           0           0           0           1           1           1           0           1           1           0
 AtZEff=   0.0000000   0.0000000   0.0000000   0.0000000   0.0000000   0.0000000   0.0000000   0.0000000   0.0000000   0.0000000
 NQMom=    0.0000000   0.0000000   0.0000000   0.0000000   0.0000000   0.0000000   0.0000000   0.0000000   0.0000000   0.0000000
 NMagM=    0.0000000   0.0000000   0.0000000   2.7928460   2.7928460   2.7928460   0.0000000   2.7928460   2.7928460   0.0000000
 AtZNuc=   6.0000000   8.0000000   6.0000000   1.0000000   1.0000000   1.0000000   6.0000000   1.0000000   1.0000000   6.0000000

  Atom        11          12          13          14          15          16          17          18          19          20
 IAtWgt=          12           1           1           1          12           1           1           1          12           1
 AtmWgt=  12.0000000   1.0078250   1.0078250   1.0078250  12.0000000   1.0078250   1.0078250   1.0078250  12.0000000   1.0078250
 NucSpn=           0           1           1           1           0           1           1           1           0           1
 AtZEff=   0.0000000   0.0000000   0.0000000   0.0000000   0.0000000   0.0000000   0.0000000   0.0000000   0.0000000   0.0000000
 NQMom=    0.0000000   0.0000000   0.0000000   0.0000000   0.0000000   0.0000000   0.0000000   0.0000000   0.0000000   0.0000000
 NMagM=    0.0000000   2.7928460   2.7928460   2.7928460   0.0000000   2.7928460   2.7928460   2.7928460   0.0000000   2.7928460
 AtZNuc=   6.0000000   1.0000000   1.0000000   1.0000000   6.0000000   1.0000000   1.0000000   1.0000000   6.0000000   1.0000000

  Atom        21          22
 IAtWgt=           1           1
 AtmWgt=   1.0078250   1.0078250
 NucSpn=           1           1
 AtZEff=   0.0000000   0.0000000
 NQMom=    0.0000000   0.0000000
 NMagM=    2.7928460   2.7928460
 AtZNuc=   1.0000000   1.0000000
 Leave Link  101 at Tue Feb  7 16:28:53 2017, MaxMem=  1048576000 cpu:         3.1
 (Enter /mnt/data/applications/G09/g09/l103.exe)

 GradGradGradGradGradGradGradGradGradGradGradGradGradGradGradGradGradGrad
 Berny optimization.
 Initialization pass.
                           ----------------------------
                           !    Initial Parameters    !
                           ! (Angstroms and Degrees)  !
 --------------------------                            --------------------------
 ! Name  Definition              Value          Derivative Info.                !
 --------------------------------------------------------------------------------
 ! R1    R(1,2)                  1.2584         estimate D2E/DX2                !
 ! R2    R(1,3)                  1.54           estimate D2E/DX2                !
 ! R3    R(1,7)                  1.54           estimate D2E/DX2                !
 ! R4    R(3,4)                  1.07           estimate D2E/DX2                !
 ! R5    R(3,5)                  1.07           estimate D2E/DX2                !
 ! R6    R(3,6)                  1.07           estimate D2E/DX2                !
 ! R7    R(7,8)                  1.07           estimate D2E/DX2                !
 ! R8    R(7,9)                  1.07           estimate D2E/DX2                !
 ! R9    R(7,10)                 1.54           estimate D2E/DX2                !
 ! R10   R(10,11)                1.54           estimate D2E/DX2                !
 ! R11   R(10,15)                1.54           estimate D2E/DX2                !
 ! R12   R(10,19)                1.54           estimate D2E/DX2                !
 ! R13   R(11,12)                1.07           estimate D2E/DX2                !
 ! R14   R(11,13)                1.07           estimate D2E/DX2                !
 ! R15   R(11,14)                1.07           estimate D2E/DX2                !
 ! R16   R(15,16)                1.07           estimate D2E/DX2                !
 ! R17   R(15,17)                1.07           estimate D2E/DX2                !
 ! R18   R(15,18)                1.07           estimate D2E/DX2                !
 ! R19   R(19,20)                1.07           estimate D2E/DX2                !
 ! R20   R(19,21)                1.07           estimate D2E/DX2                !
 ! R21   R(19,22)                1.07           estimate D2E/DX2                !
 ! A1    A(2,1,3)              119.8865         estimate D2E/DX2                !
 ! A2    A(2,1,7)              120.2269         estimate D2E/DX2                !
 ! A3    A(3,1,7)              119.8865         estimate D2E/DX2                !
 ! A4    A(1,3,4)              109.4712         estimate D2E/DX2                !
 ! A5    A(1,3,5)              109.4712         estimate D2E/DX2                !
 ! A6    A(1,3,6)              109.4712         estimate D2E/DX2                !
 ! A7    A(4,3,5)              109.4713         estimate D2E/DX2                !
 ! A8    A(4,3,6)              109.4712         estimate D2E/DX2                !
 ! A9    A(5,3,6)              109.4712         estimate D2E/DX2                !
 ! A10   A(1,7,8)              109.4712         estimate D2E/DX2                !
 ! A11   A(1,7,9)              109.4712         estimate D2E/DX2                !
 ! A12   A(1,7,10)             109.4712         estimate D2E/DX2                !
 ! A13   A(8,7,9)              109.4713         estimate D2E/DX2                !
 ! A14   A(8,7,10)             109.4712         estimate D2E/DX2                !
 ! A15   A(9,7,10)             109.4712         estimate D2E/DX2                !
 ! A16   A(7,10,11)            109.4712         estimate D2E/DX2                !
 ! A17   A(7,10,15)            109.4712         estimate D2E/DX2                !
 ! A18   A(7,10,19)            109.4712         estimate D2E/DX2                !
 ! A19   A(11,10,15)           109.4713         estimate D2E/DX2                !
 ! A20   A(11,10,19)           109.4712         estimate D2E/DX2                !
 ! A21   A(15,10,19)           109.4712         estimate D2E/DX2                !
 ! A22   A(10,11,12)           109.4712         estimate D2E/DX2                !
 ! A23   A(10,11,13)           109.4712         estimate D2E/DX2                !
 ! A24   A(10,11,14)           109.4712         estimate D2E/DX2                !
 ! A25   A(12,11,13)           109.4713         estimate D2E/DX2                !
 ! A26   A(12,11,14)           109.4712         estimate D2E/DX2                !
 ! A27   A(13,11,14)           109.4712         estimate D2E/DX2                !
 ! A28   A(10,15,16)           109.4712         estimate D2E/DX2                !
 ! A29   A(10,15,17)           109.4712         estimate D2E/DX2                !
 ! A30   A(10,15,18)           109.4712         estimate D2E/DX2                !
 ! A31   A(16,15,17)           109.4713         estimate D2E/DX2                !
 ! A32   A(16,15,18)           109.4712         estimate D2E/DX2                !
 ! A33   A(17,15,18)           109.4712         estimate D2E/DX2                !
 ! A34   A(10,19,20)           109.4712         estimate D2E/DX2                !
 ! A35   A(10,19,21)           109.4712         estimate D2E/DX2                !
 ! A36   A(10,19,22)           109.4712         estimate D2E/DX2                !
 ! A37   A(20,19,21)           109.4713         estimate D2E/DX2                !
 ! A38   A(20,19,22)           109.4712         estimate D2E/DX2                !
 ! A39   A(21,19,22)           109.4712         estimate D2E/DX2                !
 ! D1    D(2,1,3,4)             68.5551         estimate D2E/DX2                !
 ! D2    D(2,1,3,5)           -171.4449         estimate D2E/DX2                !
 ! D3    D(2,1,3,6)            -51.4449         estimate D2E/DX2                !
 ! D4    D(7,1,3,4)           -111.4449         estimate D2E/DX2                !
 ! D5    D(7,1,3,5)              8.5551         estimate D2E/DX2                !
 ! D6    D(7,1,3,6)            128.5551         estimate D2E/DX2                !
 ! D7    D(2,1,7,8)            116.0912         estimate D2E/DX2                !
 ! D8    D(2,1,7,9)           -123.9088         estimate D2E/DX2                !
 ! D9    D(2,1,7,10)            -3.9088         estimate D2E/DX2                !
 ! D10   D(3,1,7,8)            -63.9088         estimate D2E/DX2                !
 ! D11   D(3,1,7,9)             56.0912         estimate D2E/DX2                !
 ! D12   D(3,1,7,10)           176.0912         estimate D2E/DX2                !
 ! D13   D(1,7,10,11)         -178.6284         estimate D2E/DX2                !
 ! D14   D(1,7,10,15)          -58.6284         estimate D2E/DX2                !
 ! D15   D(1,7,10,19)           61.3716         estimate D2E/DX2                !
 ! D16   D(8,7,10,11)           61.3716         estimate D2E/DX2                !
 ! D17   D(8,7,10,15)         -178.6284         estimate D2E/DX2                !
 ! D18   D(8,7,10,19)          -58.6284         estimate D2E/DX2                !
 ! D19   D(9,7,10,11)          -58.6285         estimate D2E/DX2                !
 ! D20   D(9,7,10,15)           61.3716         estimate D2E/DX2                !
 ! D21   D(9,7,10,19)         -178.6284         estimate D2E/DX2                !
 ! D22   D(7,10,11,12)          60.4648         estimate D2E/DX2                !
 ! D23   D(7,10,11,13)        -179.5352         estimate D2E/DX2                !
 ! D24   D(7,10,11,14)         -59.5352         estimate D2E/DX2                !
 ! D25   D(15,10,11,12)        -59.5352         estimate D2E/DX2                !
 ! D26   D(15,10,11,13)         60.4648         estimate D2E/DX2                !
 ! D27   D(15,10,11,14)       -179.5352         estimate D2E/DX2                !
 ! D28   D(19,10,11,12)       -179.5352         estimate D2E/DX2                !
 ! D29   D(19,10,11,13)        -59.5352         estimate D2E/DX2                !
 ! D30   D(19,10,11,14)         60.4648         estimate D2E/DX2                !
 ! D31   D(7,10,15,16)         -18.5311         estimate D2E/DX2                !
 ! D32   D(7,10,15,17)         101.469          estimate D2E/DX2                !
 ! D33   D(7,10,15,18)        -138.531          estimate D2E/DX2                !
 ! D34   D(11,10,15,16)        101.4689         estimate D2E/DX2                !
 ! D35   D(11,10,15,17)       -138.5311         estimate D2E/DX2                !
 ! D36   D(11,10,15,18)        -18.5311         estimate D2E/DX2                !
 ! D37   D(19,10,15,16)       -138.5311         estimate D2E/DX2                !
 ! D38   D(19,10,15,17)        -18.531          estimate D2E/DX2                !
 ! D39   D(19,10,15,18)        101.469          estimate D2E/DX2                !
 ! D40   D(7,10,19,20)          20.454          estimate D2E/DX2                !
 ! D41   D(7,10,19,21)         140.454          estimate D2E/DX2                !
 ! D42   D(7,10,19,22)         -99.546          estimate D2E/DX2                !
 ! D43   D(11,10,19,20)        -99.546          estimate D2E/DX2                !
 ! D44   D(11,10,19,21)         20.454          estimate D2E/DX2                !
 ! D45   D(11,10,19,22)        140.454          estimate D2E/DX2                !
 ! D46   D(15,10,19,20)        140.4539         estimate D2E/DX2                !
 ! D47   D(15,10,19,21)        -99.546          estimate D2E/DX2                !
 ! D48   D(15,10,19,22)         20.454          estimate D2E/DX2                !
 --------------------------------------------------------------------------------
 Trust Radius=3.00D-01 FncErr=1.00D-07 GrdErr=1.00D-07
 Number of steps in this run=    118 maximum allowed number of steps=    132.
 GradGradGradGradGradGradGradGradGradGradGradGradGradGradGradGradGradGrad

 Leave Link  103 at Tue Feb  7 16:28:53 2017, MaxMem=  1048576000 cpu:         0.1
 (Enter /mnt/data/applications/G09/g09/l202.exe)
                          Input orientation:                          
 ---------------------------------------------------------------------
 Center     Atomic      Atomic             Coordinates (Angstroms)
 Number     Number       Type             X           Y           Z
 ---------------------------------------------------------------------
      1          6    10061002       -2.368421    0.384615    0.000000
      2          8    10081002       -1.741381    1.463526    0.162305
      3          6    10061003       -3.908421    0.384615    0.000000
      4          1    10011000       -4.265087    0.889018   -0.873651
      5          1    10011000       -4.265087   -0.624190    0.000000
      6          1    10011000       -4.265088    0.889018    0.873651
      7          6    10061003       -1.601064   -0.935730   -0.198625
      8          1    10011000       -1.808014   -1.594917    0.618408
      9          1    10011000       -1.911285   -1.394283   -1.114263
     10          6    10061003       -0.089366   -0.647364   -0.255334
     11          6    10061003        0.675861   -1.963313   -0.488370
     12          1    10011000        0.367010   -2.395848   -1.417039
     13          1    10011000        1.726686   -1.764103   -0.519683
     14          1    10011000        0.465569   -2.644317    0.309697
     15          6    10061003        0.204112    0.328496   -1.409963
     16          1    10011000       -0.619542    0.330934   -2.092963
     17          1    10011000        0.344661    1.313821   -1.017178
     18          1    10011000        1.091126    0.018765   -1.921990
     19          6    10061003        0.363625   -0.018910    1.075622
     20          1    10011000       -0.351146   -0.245981    1.838799
     21          1    10011000        1.318055   -0.416444    1.351176
     22          1    10011000        0.438708    1.042350    0.961645
 ---------------------------------------------------------------------
                    Distance matrix (angstroms):
                    1          2          3          4          5
     1  C    0.000000
     2  O    1.258400   0.000000
     3  C    1.540000   2.426202   0.000000
     4  H    2.148263   2.787895   1.070000   0.000000
     5  H    2.148263   3.279329   1.070000   1.747303   0.000000
     6  H    2.148263   2.684245   1.070000   1.747303   1.747303
     7  C    1.540000   2.430306   2.665832   3.298846   2.689522
     8  H    2.148263   3.092983   2.951726   3.799129   2.713291
     9  H    2.148263   3.134575   2.897346   3.288121   2.715697
    10  C    2.514810   2.712827   3.964260   4.492152   4.183584
    11  C    3.875426   4.243779   5.173675   5.718147   5.142443
    12  H    4.149887   4.672730   5.293230   5.704555   5.157819
    13  H    4.653704   4.786458   6.053222   6.562446   6.121342
    14  H    4.159548   4.665482   5.329365   6.021950   5.153245
    15  C    2.934122   2.746864   4.347881   4.536029   4.782191
    16  H    2.727994   2.761797   3.898731   3.884351   4.310773
    17  H    3.042842   2.401075   4.470658   4.631505   5.102972
    18  H    3.974464   3.801936   5.368740   5.526788   5.726820
    19  C    2.963760   2.731815   4.423819   5.103820   4.790439
    20  H    2.801470   2.768718   4.053768   4.895360   4.340871
    21  H    4.007178   3.782572   5.457419   6.150249   5.748070
    22  H    3.039301   2.359898   4.500545   5.051486   5.082107
                    6          7          8          9         10
     6  H    0.000000
     7  C    3.402426   0.000000
     8  H    3.503183   1.070000   0.000000
     9  H    3.834795   1.070000   1.747303   0.000000
    10  C    4.590395   1.540000   2.148263   2.148263   0.000000
    11  C    5.865481   2.514809   2.744141   2.721922   1.540000
    12  H    6.123229   2.736749   3.084683   2.507077   2.148263
    13  H    6.699387   3.444300   3.717255   3.704744   2.148263
    14  H    5.931409   2.729218   2.523039   3.039684   2.148263
    15  C    5.050032   2.514809   3.444192   2.744141   1.540000
    16  H    4.733103   2.481197   3.531700   2.367029   2.148263
    17  H    5.000548   3.084859   3.971135   3.525981   2.148263
    18  H    6.104260   3.336006   4.178829   3.415202   2.148263
    19  C    4.721240   2.514810   2.721922   3.444192   1.540000
    20  H    4.187920   2.487799   2.330546   3.531742   2.148263
    21  H    5.753586   3.345563   3.420242   4.178898   2.148263
    22  H    4.707117   3.069152   3.481487   3.971025   2.148263
                   11         12         13         14         15
    11  C    0.000000
    12  H    1.070000   0.000000
    13  H    1.070000   1.747303   0.000000
    14  H    1.070000   1.747303   1.747303   0.000000
    15  C    2.514810   2.729219   2.736750   3.444301   0.000000
    16  H    3.084859   2.977499   3.516984   3.975218   1.070000
    17  H    3.336006   3.731224   3.410441   4.176371   1.070000
    18  H    2.481199   2.570929   2.355635   3.530404   1.070000
    19  C    2.514809   3.444300   2.729218   2.736749   2.514809
    20  H    3.069151   3.967135   3.490633   2.959255   3.345563
    21  H    2.487799   3.533487   2.341639   2.602850   3.069152
    22  H    3.345564   4.181445   3.424821   3.743965   2.487800
                   16         17         18         19         20
    16  H    0.000000
    17  H    1.747303   0.000000
    18  H    1.747303   1.747303   0.000000
    19  C    3.336006   2.481197   3.084859   0.000000
    20  H    3.982916   3.327722   4.036556   1.070000   0.000000
    21  H    4.021809   3.090374   3.309761   1.070000   1.747303
    22  H    3.310080   1.999570   3.128694   1.070000   1.747303
                   21         22
    21  H    0.000000
    22  H    1.747303   0.000000
 Symmetry turned off by external request.
 Stoichiometry    C7H14O
 Framework group  C1[X(C7H14O)]
 Deg. of freedom    60
 Full point group                 C1      NOp   1
 Rotational constants (GHZ):      3.4369147      1.3409213      1.2394425
 Leave Link  202 at Tue Feb  7 16:28:53 2017, MaxMem=  1048576000 cpu:         0.0
 (Enter /mnt/data/applications/G09/g09/l120.exe)
 ONIOM: Cut between C /H    10 and C     7 factor= 0.723886 0.723886
 ONIOM: saving gridpoint 17
 ONIOM: generating point  3 -- low level on real system.
 Leave Link  120 at Tue Feb  7 16:28:53 2017, MaxMem=  1048576000 cpu:         0.0
 (Enter /mnt/data/applications/G09/g09/l301.exe)
 Standard basis: STO-3G (5D, 7F)
 Ernie: Thresh=  0.10000D-02 Tol=  0.10000D-05 Strict=F.
    54 basis functions,   162 primitive gaussians,    54 cartesian basis functions
    32 alpha electrons       32 beta electrons
       nuclear repulsion energy       406.1874541449 Hartrees.
 IExCor=    0 DFT=F Ex=HF Corr=None ExCW=0 ScaHFX=  1.000000
 ScaDFX=  1.000000  1.000000  1.000000  1.000000 ScalE2=  1.000000  1.000000
 IRadAn=      0 IRanWt=     -1 IRanGd=            0 ICorTp=0 IEmpDi=  4
 NAtoms=   22 NActive=   22 NUniq=   22 SFac= 1.00D+00 NAtFMM=   60 NAOKFM=F Big=F
 Integral buffers will be    131072 words long.
 Raffenetti 1 integral format.
 Two-electron integral symmetry is turned off.
 Leave Link  301 at Tue Feb  7 16:28:53 2017, MaxMem=  1048576000 cpu:         0.4
 (Enter /mnt/data/applications/G09/g09/l402.exe)
 External calculation of energy and first derivatives.
 Running external command "./sictwo_files/sictwo_g09d01 R"
         input file       "/scratch/Gau-14746.EIn"
         output file      "/scratch/Gau-14746.EOu"
         message file     "/scratch/Gau-14746.EMs"
         fchk file        "/scratch/Gau-14746.EFC"
         mat. el file     "/scratch/Gau-14746.EUF"

---------------------------- SICTWO Version 1.0 STARTED -----------------------------

MM calculations started
MM calculations finished ....
Information recovery

---------------------------- SICTWO Version 1.0 FINISHED -----------------------------

 Recovered energy= 0.515155427265E-01 dipole=     -0.764435156449     -1.314450775963     -0.197895462529
 Energy=    5.151554273E-02 NIter=   0.
 Dipole moment=      -0.764435      -1.314451      -0.197895
 Leave Link  402 at Tue Feb  7 16:28:57 2017, MaxMem=  1048576000 cpu:        23.4
 (Enter /mnt/data/applications/G09/g09/l601.exe)
 Leave Link  601 at Tue Feb  7 16:28:58 2017, MaxMem=  1048576000 cpu:         0.3
 (Enter /mnt/data/applications/G09/g09/l716.exe)
 Dipole        =-7.64435156D-01-1.31445078D+00-1.97895463D-01
 Cartesian Forces:  Max     0.034310550 RMS     0.011598740
 Leave Link  716 at Tue Feb  7 16:28:58 2017, MaxMem=  1048576000 cpu:         0.3
 (Enter /mnt/data/applications/G09/g09/l120.exe)
 SvSCFP did not find density file   528.
 ONIOM: saving gridpoint  3
 ONIOM: restoring gridpoint 17
 ONIOM: generating point  2 -- high level on model system.
 Leave Link  120 at Tue Feb  7 16:28:58 2017, MaxMem=  1048576000 cpu:         0.0
 (Enter /mnt/data/applications/G09/g09/l301.exe)
 Standard basis: 6-31G(d) (6D, 7F)
 Ernie: Thresh=  0.10000D-02 Tol=  0.10000D-05 Strict=F.
    72 basis functions,   136 primitive gaussians,    72 cartesian basis functions
    16 alpha electrons       16 beta electrons
       nuclear repulsion energy       117.6008444183 Hartrees.
 IExCor=  402 DFT=T Ex+Corr=B3LYP ExCW=0 ScaHFX=  0.200000
 ScaDFX=  0.800000  0.720000  1.000000  0.810000 ScalE2=  1.000000  1.000000
 IRadAn=      0 IRanWt=     -1 IRanGd=            0 ICorTp=0 IEmpDi=  4
 NAtoms=   22 NActive=   10 NUniq=   10 SFac= 1.00D+00 NAtFMM=   60 NAOKFM=F Big=F
 Integral buffers will be    131072 words long.
 Raffenetti 2 integral format.
 Two-electron integral symmetry is turned off.
 Leave Link  301 at Tue Feb  7 16:28:59 2017, MaxMem=  1048576000 cpu:         0.4
 (Enter /mnt/data/applications/G09/g09/l302.exe)
 NPDir=0 NMtPBC=     1 NCelOv=     1 NCel=       1 NClECP=     1 NCelD=      1
         NCelK=      1 NCelE2=     1 NClLst=     1 CellRange=     0.0.
 One-electron integrals computed using PRISM.
 NBasis=    72 RedAO= T EigKep=  5.47D-03  NBF=    72
 NBsUse=    72 1.00D-06 EigRej= -1.00D+00 NBFU=    72
 Precomputing XC quadrature grid using
 IXCGrd= 4 IRadAn=           0 IRanWt=          -1 IRanGd=           0 AccXCQ= 0.00D+00.
 Generated NRdTot=       0 NPtTot=           0 NUsed=           0 NTot=          32
 NSgBfM=    72    72    72    72    72 MxSgAt=    10 MxSgA2=    10.
 Leave Link  302 at Tue Feb  7 16:28:59 2017, MaxMem=  1048576000 cpu:         1.9
 (Enter /mnt/data/applications/G09/g09/l303.exe)
 DipDrv:  MaxL=1.
 Leave Link  303 at Tue Feb  7 16:28:59 2017, MaxMem=  1048576000 cpu:         0.3
 (Enter /mnt/data/applications/G09/g09/l401.exe)
 ExpMin= 1.61D-01 ExpMax= 5.48D+03 ExpMxC= 8.25D+02 IAcc=1 IRadAn=         1 AccDes= 0.00D+00
 Harris functional with IExCor=  402 and IRadAn=       1 diagonalized for initial guess.
 HarFok:  IExCor=  402 AccDes= 0.00D+00 IRadAn=         1 IDoV= 1 UseB2=F ITyADJ=14
 ICtDFT=  3500011 ScaDFX=  1.000000  1.000000  1.000000  1.000000
 FoFCou: FMM=F IPFlag=           0 FMFlag=      100000 FMFlg1=           0
         NFxFlg=           0 DoJE=T BraDBF=F KetDBF=T FulRan=T
         wScrn=  0.000000 ICntrl=     500 IOpCl=  0 I1Cent=   200000004 NGrid=           0
         NMat0=    1 NMatS0=      1 NMatT0=    0 NMatD0=    1 NMtDS0=    0 NMtDT0=    0
 Symmetry not used in FoFCou.
 Harris En= -193.203402208356    
 JPrj=0 DoOrth=F DoCkMO=F.
 Leave Link  401 at Tue Feb  7 16:28:59 2017, MaxMem=  1048576000 cpu:         1.9
 (Enter /mnt/data/applications/G09/g09/l502.exe)
 Closed shell SCF:
 Using DIIS extrapolation, IDIIS=  1040.
 Two-electron integral symmetry not used.
 Keep R1 ints in memory in canonical form, NReq=4378010.
 IVT=       28630 IEndB=       28630 NGot=  1048576000 MDV=  1045092865
 LenX=  1045092865 LenY=  1045087240
 Requested convergence on RMS density matrix=1.00D-08 within 100 cycles.
 Requested convergence on MAX density matrix=1.00D-06.
 Requested convergence on             energy=1.00D-06.
 No special actions if energy rises.
 FoFCou: FMM=F IPFlag=           0 FMFlag=           0 FMFlg1=           0
         NFxFlg=           0 DoJE=F BraDBF=F KetDBF=F FulRan=T
         wScrn=  0.000000 ICntrl=     600 IOpCl=  0 I1Cent=           0 NGrid=           0
         NMat0=    1 NMatS0=   2628 NMatT0=    0 NMatD0=    1 NMtDS0=    0 NMtDT0=    0
 Symmetry not used in FoFCou.
 Integral accuracy reduced to 1.0D-05 until final iterations.

 Cycle   1  Pass 0  IDiag  1:
 E= -192.978098666127    
 DIIS: error= 5.70D-02 at cycle   1 NSaved=   1.
 NSaved= 1 IEnMin= 1 EnMin= -192.978098666127     IErMin= 1 ErrMin= 5.70D-02
 ErrMax= 5.70D-02  0.00D+00 EMaxC= 1.00D-01 BMatC= 1.83D-01 BMatP= 1.83D-01
 IDIUse=3 WtCom= 4.30D-01 WtEn= 5.70D-01
 Coeff-Com:  0.100D+01
 Coeff-En:   0.100D+01
 Coeff:      0.100D+01
 Gap=     0.109 Goal=   None    Shift=    0.000
 GapD=    0.109 DampG=1.000 DampE=0.500 DampFc=0.5000 IDamp=-1.
 Damping current iteration by 5.00D-01
 RMSDP=1.32D-02 MaxDP=2.05D-01              OVMax= 3.20D-01

 Cycle   2  Pass 0  IDiag  1:
 E= -193.031420915876     Delta-E=       -0.053322249749 Rises=F Damp=T
 DIIS: error= 1.92D-02 at cycle   2 NSaved=   2.
 NSaved= 2 IEnMin= 2 EnMin= -193.031420915876     IErMin= 2 ErrMin= 1.92D-02
 ErrMax= 1.92D-02  0.00D+00 EMaxC= 1.00D-01 BMatC= 2.71D-02 BMatP= 1.83D-01
 IDIUse=3 WtCom= 8.08D-01 WtEn= 1.92D-01
 Coeff-Com:  0.215D+00 0.785D+00
 Coeff-En:   0.310D+00 0.690D+00
 Coeff:      0.233D+00 0.767D+00
 Gap=     0.217 Goal=   None    Shift=    0.000
 RMSDP=3.96D-03 MaxDP=6.02D-02 DE=-5.33D-02 OVMax= 2.66D-01

 Cycle   3  Pass 0  IDiag  1:
 E= -193.120657923280     Delta-E=       -0.089237007404 Rises=F Damp=F
 DIIS: error= 2.42D-02 at cycle   3 NSaved=   3.
 NSaved= 3 IEnMin= 3 EnMin= -193.120657923280     IErMin= 2 ErrMin= 1.92D-02
 ErrMax= 2.42D-02  0.00D+00 EMaxC= 1.00D-01 BMatC= 3.13D-02 BMatP= 2.71D-02
 IDIUse=2 WtCom= 0.00D+00 WtEn= 1.00D+00
 Coeff-En:   0.000D+00 0.000D+00 0.100D+01
 Coeff:      0.000D+00 0.000D+00 0.100D+01
 Gap=     0.189 Goal=   None    Shift=    0.000
 RMSDP=6.53D-03 MaxDP=1.24D-01 DE=-8.92D-02 OVMax= 2.35D-01

 Cycle   4  Pass 0  IDiag  1:
 E= -193.003261914616     Delta-E=        0.117396008664 Rises=F Damp=F
 DIIS: error= 5.85D-02 at cycle   4 NSaved=   4.
 NSaved= 4 IEnMin= 3 EnMin= -193.120657923280     IErMin= 2 ErrMin= 1.92D-02
 ErrMax= 5.85D-02  0.00D+00 EMaxC= 1.00D-01 BMatC= 1.79D-01 BMatP= 2.71D-02
 IDIUse=2 WtCom= 0.00D+00 WtEn= 1.00D+00
 Coeff-En:   0.000D+00 0.000D+00 0.787D+00 0.213D+00
 Coeff:      0.000D+00 0.000D+00 0.787D+00 0.213D+00
 Gap=     0.207 Goal=   None    Shift=    0.000
 RMSDP=3.70D-03 MaxDP=6.90D-02 DE= 1.17D-01 OVMax= 1.31D-01

 Cycle   5  Pass 0  IDiag  1:
 E= -193.139105707509     Delta-E=       -0.135843792893 Rises=F Damp=F
 DIIS: error= 1.38D-02 at cycle   5 NSaved=   5.
 NSaved= 5 IEnMin= 5 EnMin= -193.139105707509     IErMin= 5 ErrMin= 1.38D-02
 ErrMax= 1.38D-02  0.00D+00 EMaxC= 1.00D-01 BMatC= 1.09D-02 BMatP= 2.71D-02
 IDIUse=3 WtCom= 8.62D-01 WtEn= 1.38D-01
 Coeff-Com: -0.173D-01 0.539D-01 0.276D+00-0.100D+00 0.788D+00
 Coeff-En:   0.000D+00 0.000D+00 0.298D+00 0.000D+00 0.702D+00
 Coeff:     -0.149D-01 0.465D-01 0.279D+00-0.867D-01 0.776D+00
 Gap=     0.221 Goal=   None    Shift=    0.000
 RMSDP=1.17D-03 MaxDP=2.07D-02 DE=-1.36D-01 OVMax= 3.79D-02

 Cycle   6  Pass 0  IDiag  1:
 E= -193.148471130828     Delta-E=       -0.009365423319 Rises=F Damp=F
 DIIS: error= 6.12D-04 at cycle   6 NSaved=   6.
 NSaved= 6 IEnMin= 6 EnMin= -193.148471130828     IErMin= 6 ErrMin= 6.12D-04
 ErrMax= 6.12D-04  0.00D+00 EMaxC= 1.00D-01 BMatC= 2.39D-05 BMatP= 1.09D-02
 IDIUse=3 WtCom= 9.94D-01 WtEn= 6.12D-03
 Coeff-Com: -0.671D-02 0.131D-01 0.785D-01-0.306D-01 0.264D+00 0.682D+00
 Coeff-En:   0.000D+00 0.000D+00 0.000D+00 0.000D+00 0.000D+00 0.100D+01
 Coeff:     -0.666D-02 0.131D-01 0.781D-01-0.304D-01 0.262D+00 0.684D+00
 Gap=     0.221 Goal=   None    Shift=    0.000
 RMSDP=6.23D-05 MaxDP=1.28D-03 DE=-9.37D-03 OVMax= 1.99D-03

 Cycle   7  Pass 0  IDiag  1:
 E= -193.148489550875     Delta-E=       -0.000018420046 Rises=F Damp=F
 DIIS: error= 1.02D-04 at cycle   7 NSaved=   7.
 NSaved= 7 IEnMin= 7 EnMin= -193.148489550875     IErMin= 7 ErrMin= 1.02D-04
 ErrMax= 1.02D-04  0.00D+00 EMaxC= 1.00D-01 BMatC= 6.83D-07 BMatP= 2.39D-05
 IDIUse=3 WtCom= 9.99D-01 WtEn= 1.02D-03
 Coeff-Com: -0.179D-02 0.271D-02 0.165D-01-0.815D-02 0.671D-01 0.319D+00
 Coeff-Com:  0.604D+00
 Coeff-En:   0.000D+00 0.000D+00 0.000D+00 0.000D+00 0.000D+00 0.000D+00
 Coeff-En:   0.100D+01
 Coeff:     -0.179D-02 0.271D-02 0.165D-01-0.814D-02 0.670D-01 0.319D+00
 Coeff:      0.605D+00
 Gap=     0.221 Goal=   None    Shift=    0.000
 RMSDP=1.45D-05 MaxDP=1.65D-04 DE=-1.84D-05 OVMax= 2.40D-04

 Cycle   8  Pass 0  IDiag  1:
 E= -193.148490156366     Delta-E=       -0.000000605491 Rises=F Damp=F
 DIIS: error= 9.54D-06 at cycle   8 NSaved=   8.
 NSaved= 8 IEnMin= 8 EnMin= -193.148490156366     IErMin= 8 ErrMin= 9.54D-06
 ErrMax= 9.54D-06  0.00D+00 EMaxC= 1.00D-01 BMatC= 7.78D-09 BMatP= 6.83D-07
 IDIUse=1 WtCom= 1.00D+00 WtEn= 0.00D+00
 Coeff-Com: -0.723D-05-0.117D-03 0.125D-03-0.355D-03 0.182D-02 0.223D-01
 Coeff-Com:  0.668D-01 0.909D+00
 Coeff:     -0.723D-05-0.117D-03 0.125D-03-0.355D-03 0.182D-02 0.223D-01
 Coeff:      0.668D-01 0.909D+00
 Gap=     0.221 Goal=   None    Shift=    0.000
 RMSDP=1.24D-06 MaxDP=1.59D-05 DE=-6.05D-07 OVMax= 2.01D-05

 Initial convergence to 1.0D-05 achieved.  Increase integral accuracy.
 Cycle   9  Pass 1  IDiag  1:
 E= -193.148481242179     Delta-E=        0.000008914187 Rises=F Damp=F
 DIIS: error= 4.74D-06 at cycle   1 NSaved=   1.
 NSaved= 1 IEnMin= 1 EnMin= -193.148481242179     IErMin= 1 ErrMin= 4.74D-06
 ErrMax= 4.74D-06  0.00D+00 EMaxC= 1.00D-01 BMatC= 4.24D-09 BMatP= 4.24D-09
 IDIUse=1 WtCom= 1.00D+00 WtEn= 0.00D+00
 Coeff-Com:  0.100D+01
 Coeff:      0.100D+01
 Gap=     0.221 Goal=   None    Shift=    0.000
 RMSDP=1.24D-06 MaxDP=1.59D-05 DE= 8.91D-06 OVMax= 2.31D-05

 Cycle  10  Pass 1  IDiag  1:
 E= -193.148481247066     Delta-E=       -0.000000004886 Rises=F Damp=F
 DIIS: error= 4.01D-06 at cycle   2 NSaved=   2.
 NSaved= 2 IEnMin= 2 EnMin= -193.148481247066     IErMin= 2 ErrMin= 4.01D-06
 ErrMax= 4.01D-06  0.00D+00 EMaxC= 1.00D-01 BMatC= 9.96D-10 BMatP= 4.24D-09
 IDIUse=1 WtCom= 1.00D+00 WtEn= 0.00D+00
 Coeff-Com:  0.217D+00 0.783D+00
 Coeff:      0.217D+00 0.783D+00
 Gap=     0.221 Goal=   None    Shift=    0.000
 RMSDP=9.51D-07 MaxDP=1.94D-05 DE=-4.89D-09 OVMax= 3.23D-05

 Cycle  11  Pass 1  IDiag  1:
 E= -193.148481246065     Delta-E=        0.000000001001 Rises=F Damp=F
 DIIS: error= 6.91D-06 at cycle   3 NSaved=   3.
 NSaved= 3 IEnMin= 2 EnMin= -193.148481247066     IErMin= 2 ErrMin= 4.01D-06
 ErrMax= 6.91D-06  0.00D+00 EMaxC= 1.00D-01 BMatC= 2.38D-09 BMatP= 9.96D-10
 IDIUse=1 WtCom= 1.00D+00 WtEn= 0.00D+00
 Coeff-Com: -0.275D-02 0.611D+00 0.391D+00
 Coeff:     -0.275D-02 0.611D+00 0.391D+00
 Gap=     0.221 Goal=   None    Shift=    0.000
 RMSDP=5.28D-07 MaxDP=1.20D-05 DE= 1.00D-09 OVMax= 1.98D-05

 Cycle  12  Pass 1  IDiag  1:
 E= -193.148481247882     Delta-E=       -0.000000001817 Rises=F Damp=F
 DIIS: error= 4.94D-07 at cycle   4 NSaved=   4.
 NSaved= 4 IEnMin= 4 EnMin= -193.148481247882     IErMin= 4 ErrMin= 4.94D-07
 ErrMax= 4.94D-07  0.00D+00 EMaxC= 1.00D-01 BMatC= 2.67D-11 BMatP= 9.96D-10
 IDIUse=1 WtCom= 1.00D+00 WtEn= 0.00D+00
 Coeff-Com: -0.153D-01 0.269D+00 0.188D+00 0.558D+00
 Coeff:     -0.153D-01 0.269D+00 0.188D+00 0.558D+00
 Gap=     0.221 Goal=   None    Shift=    0.000
 RMSDP=7.85D-08 MaxDP=1.34D-06 DE=-1.82D-09 OVMax= 1.33D-06

 Cycle  13  Pass 1  IDiag  1:
 E= -193.148481247905     Delta-E=       -0.000000000023 Rises=F Damp=F
 DIIS: error= 1.09D-07 at cycle   5 NSaved=   5.
 NSaved= 5 IEnMin= 5 EnMin= -193.148481247905     IErMin= 5 ErrMin= 1.09D-07
 ErrMax= 1.09D-07  0.00D+00 EMaxC= 1.00D-01 BMatC= 1.25D-12 BMatP= 2.67D-11
 IDIUse=1 WtCom= 1.00D+00 WtEn= 0.00D+00
 Coeff-Com: -0.530D-02 0.793D-01 0.507D-01 0.237D+00 0.639D+00
 Coeff:     -0.530D-02 0.793D-01 0.507D-01 0.237D+00 0.639D+00
 Gap=     0.221 Goal=   None    Shift=    0.000
 RMSDP=1.70D-08 MaxDP=2.16D-07 DE=-2.29D-11 OVMax= 2.59D-07

 Cycle  14  Pass 1  IDiag  1:
 E= -193.148481247907     Delta-E=       -0.000000000002 Rises=F Damp=F
 DIIS: error= 1.71D-08 at cycle   6 NSaved=   6.
 NSaved= 6 IEnMin= 6 EnMin= -193.148481247907     IErMin= 6 ErrMin= 1.71D-08
 ErrMax= 1.71D-08  0.00D+00 EMaxC= 1.00D-01 BMatC= 3.86D-14 BMatP= 1.25D-12
 IDIUse=1 WtCom= 1.00D+00 WtEn= 0.00D+00
 Coeff-Com: -0.634D-03 0.659D-02 0.196D-02 0.390D-01 0.193D+00 0.760D+00
 Coeff:     -0.634D-03 0.659D-02 0.196D-02 0.390D-01 0.193D+00 0.760D+00
 Gap=     0.221 Goal=   None    Shift=    0.000
 RMSDP=3.43D-09 MaxDP=5.36D-08 DE=-1.93D-12 OVMax= 5.46D-08

 SCF Done:  E(RB3LYP) =  -193.148481248     A.U. after   14 cycles
            NFock= 14  Conv=0.34D-08     -V/T= 2.0097
 KE= 1.912863568993D+02 PE=-6.851792672449D+02 EE= 1.831435846793D+02
 Leave Link  502 at Tue Feb  7 16:29:01 2017, MaxMem=  1048576000 cpu:        11.6
 (Enter /mnt/data/applications/G09/g09/l601.exe)
 Copying SCF densities to generalized density rwf, IOpCl= 0 IROHF=0.

 **********************************************************************

            Population analysis using the SCF density.

 **********************************************************************

 Alpha  occ. eigenvalues --  -19.13287 -10.28256 -10.19176 -10.18842  -1.00989
 Alpha  occ. eigenvalues --   -0.76524  -0.71546  -0.53199  -0.45836  -0.44958
 Alpha  occ. eigenvalues --   -0.44702  -0.41851  -0.38584  -0.38011  -0.33403
 Alpha  occ. eigenvalues --   -0.24116
 Alpha virt. eigenvalues --   -0.02021   0.09558   0.14278   0.15121   0.15356
 Alpha virt. eigenvalues --    0.15632   0.19389   0.19868   0.27757   0.31348
 Alpha virt. eigenvalues --    0.49364   0.52817   0.56084   0.57776   0.60176
 Alpha virt. eigenvalues --    0.65888   0.66704   0.68214   0.73945   0.81903
 Alpha virt. eigenvalues --    0.86702   0.87617   0.89689   0.90246   0.92929
 Alpha virt. eigenvalues --    0.94951   0.97449   1.02213   1.10440   1.18678
 Alpha virt. eigenvalues --    1.35130   1.38609   1.44855   1.52182   1.75666
 Alpha virt. eigenvalues --    1.77793   1.79923   1.80250   1.88928   1.91563
 Alpha virt. eigenvalues --    1.98758   2.12254   2.14871   2.23979   2.25846
 Alpha virt. eigenvalues --    2.33522   2.36117   2.43115   2.56948   2.63694
 Alpha virt. eigenvalues --    2.91004   2.92168   3.88157   4.05936   4.26410
 Alpha virt. eigenvalues --    4.45451
          Condensed to atoms (all electrons):
               1          2          3          4          5          6
     1  C    4.508440   0.550456   0.307688  -0.016825  -0.021984  -0.016914
     2  O    0.550456   8.036564  -0.078933  -0.000940   0.003755   0.000132
     3  C    0.307688  -0.078933   5.324974   0.365782   0.339603   0.365162
     4  H   -0.016825  -0.000940   0.365782   0.504375  -0.027173  -0.018035
     5  H   -0.021984   0.003755   0.339603  -0.027173   0.574507  -0.027327
     6  H   -0.016914   0.000132   0.365162  -0.018035  -0.027327   0.502581
     7  C    0.328128  -0.075025  -0.119866   0.003236   0.005474   0.004078
     8  H   -0.020756   0.001288   0.003476   0.000019   0.000130  -0.000279
     9  H   -0.023041   0.001726   0.004651  -0.000141  -0.000639   0.000018
    10  H   -0.020760   0.005054   0.005323  -0.000151  -0.000105  -0.000137
               7          8          9         10
     1  C    0.328128  -0.020756  -0.023041  -0.020760
     2  O   -0.075025   0.001288   0.001726   0.005054
     3  C   -0.119866   0.003476   0.004651   0.005323
     4  H    0.003236   0.000019  -0.000141  -0.000151
     5  H    0.005474   0.000130  -0.000639  -0.000105
     6  H    0.004078  -0.000279   0.000018  -0.000137
     7  C    5.317166   0.354257   0.352928   0.353805
     8  H    0.354257   0.535447  -0.026704  -0.022014
     9  H    0.352928  -0.026704   0.542717  -0.023014
    10  H    0.353805  -0.022014  -0.023014   0.522419
 Mulliken charges:
               1
     1  C    0.425570
     2  O   -0.444078
     3  C   -0.517859
     4  H    0.189853
     5  H    0.153760
     6  H    0.190721
     7  C   -0.524180
     8  H    0.175135
     9  H    0.171498
    10  H    0.179580
    11  C    0.000000
    12  H    0.000000
    13  H    0.000000
    14  H    0.000000
    15  C    0.000000
    16  H    0.000000
    17  H    0.000000
    18  H    0.000000
    19  C    0.000000
    20  H    0.000000
    21  H    0.000000
    22  H    0.000000
 Sum of Mulliken charges =   0.00000
 Mulliken charges with hydrogens summed into heavy atoms:
               1
     1  C    0.425570
     2  O   -0.444078
     3  C    0.016475
     7  C    0.002034
    11  C    0.000000
    15  C    0.000000
    19  C    0.000000
 Electronic spatial extent (au):  <R**2>=            985.1077
 Charge=              0.0000 electrons
 Dipole moment (field-independent basis, Debye):
    X=             -1.5390    Y=             -2.4402    Z=             -0.3800  Tot=              2.9099
 Quadrupole moment (field-independent basis, Debye-Ang):
   XX=            -16.8878   YY=            -28.2782   ZZ=            -23.7593
   XY=              3.0957   XZ=              0.6469   YZ=             -0.5675
 Traceless Quadrupole moment (field-independent basis, Debye-Ang):
   XX=              6.0873   YY=             -5.3031   ZZ=             -0.7842
   XY=              3.0957   XZ=              0.6469   YZ=             -0.5675
 Octapole moment (field-independent basis, Debye-Ang**2):
  XXX=            153.2261  YYY=            -21.8782  ZZZ=              1.8597  XYY=             65.7871
  XXY=             -6.2203  XXZ=             -0.5218  XZZ=             57.7925  YZZ=             -4.7227
  YYZ=              0.0116  XYZ=              1.0077
 Hexadecapole moment (field-independent basis, Debye-Ang**3):
 XXXX=           -990.8577 YYYY=           -170.0962 ZZZZ=            -36.7196 XXXY=             37.1020
 XXXZ=             -0.6983 YYYX=             65.1422 YYYZ=            -10.5015 ZZZX=             -2.1809
 ZZZY=             -7.8875 XXYY=           -212.1340 XXZZ=           -177.3570 YYZZ=            -30.6146
 XXYZ=             -4.6363 YYXZ=              0.5236 ZZXY=             14.9772
 N-N= 1.176008444183D+02 E-N=-6.851792656100D+02  KE= 1.912863568993D+02
 No NMR shielding tensors so no spin-rotation constants.
 Leave Link  601 at Tue Feb  7 16:29:01 2017, MaxMem=  1048576000 cpu:         1.1
 (Enter /mnt/data/applications/G09/g09/l701.exe)
 Compute integral first derivatives.
 ... and contract with generalized density number  0.
 Leave Link  701 at Tue Feb  7 16:29:02 2017, MaxMem=  1048576000 cpu:         1.7
 (Enter /mnt/data/applications/G09/g09/l702.exe)
 L702 exits ... SP integral derivatives will be done elsewhere.
 Leave Link  702 at Tue Feb  7 16:29:02 2017, MaxMem=  1048576000 cpu:         0.3
 (Enter /mnt/data/applications/G09/g09/l703.exe)
 Compute integral first derivatives, UseDBF=F ICtDFT=           0.
 Integral derivatives from FoFJK, PRISM(SPDF).
 Calling FoFJK, ICntrl=      2127 FMM=F ISym2X=0 I1Cent= 0 IOpClX= 0 NMat=1 NMatS=1 NMatT=0.
 FoFJK:  IHMeth= 1 ICntrl=    2127 DoSepK=F KAlg= 0 I1Cent=   0 FoldK=F
 IRaf=         0 NMat=   1 IRICut=       1 DoRegI=T DoRafI=F ISym2E= 0.
 FoFCou: FMM=F IPFlag=           0 FMFlag=      100000 FMFlg1=         800
         NFxFlg=           0 DoJE=F BraDBF=F KetDBF=F FulRan=T
         wScrn=  0.000000 ICntrl=    2127 IOpCl=  0 I1Cent=           0 NGrid=           0
         NMat0=    1 NMatS0=      1 NMatT0=    0 NMatD0=    1 NMtDS0=    0 NMtDT0=    0
 Symmetry not used in FoFCou.
 Leave Link  703 at Tue Feb  7 16:29:03 2017, MaxMem=  1048576000 cpu:         5.8
 (Enter /mnt/data/applications/G09/g09/l716.exe)
 Dipole        =-6.05489458D-01-9.60062300D-01-1.49492233D-01
 Cartesian Forces:  Max     0.050295081 RMS     0.013086481
 Leave Link  716 at Tue Feb  7 16:29:03 2017, MaxMem=  1048576000 cpu:         0.3
 (Enter /mnt/data/applications/G09/g09/l120.exe)
 SvSCFP is copying densities from files   528 and   530 to   603.
 ONIOM: saving gridpoint  2
 ONIOM: restoring gridpoint 17
 ONIOM: generating point  1 -- low level on model system.
 Leave Link  120 at Tue Feb  7 16:29:03 2017, MaxMem=  1048576000 cpu:         0.3
 (Enter /mnt/data/applications/G09/g09/l301.exe)
 Standard basis: STO-3G (5D, 7F)
 Ernie: Thresh=  0.10000D-02 Tol=  0.10000D-05 Strict=F.
    26 basis functions,    78 primitive gaussians,    26 cartesian basis functions
    16 alpha electrons       16 beta electrons
       nuclear repulsion energy       117.6008444183 Hartrees.
 IExCor=    0 DFT=F Ex=HF Corr=None ExCW=0 ScaHFX=  1.000000
 ScaDFX=  1.000000  1.000000  1.000000  1.000000 ScalE2=  1.000000  1.000000
 IRadAn=      0 IRanWt=     -1 IRanGd=            0 ICorTp=0 IEmpDi=  4
 NAtoms=   22 NActive=   10 NUniq=   10 SFac= 1.00D+00 NAtFMM=   60 NAOKFM=F Big=F
 Integral buffers will be    131072 words long.
 Raffenetti 1 integral format.
 Two-electron integral symmetry is turned off.
 Leave Link  301 at Tue Feb  7 16:29:03 2017, MaxMem=  1048576000 cpu:         0.4
 (Enter /mnt/data/applications/G09/g09/l402.exe)
 External calculation of energy and first derivatives.
 Running external command "./sictwo_files/sictwo_g09d01 M"
         input file       "/scratch/Gau-14746.EIn"
         output file      "/scratch/Gau-14746.EOu"
         message file     "/scratch/Gau-14746.EMs"
         fchk file        "/scratch/Gau-14746.EFC"
         mat. el file     "/scratch/Gau-14746.EUF"

---------------------------- SICTWO Version 1.0 STARTED -----------------------------

MM calculations started
MM calculations finished ....
Information recovery

---------------------------- SICTWO Version 1.0 FINISHED -----------------------------

 Recovered energy= 0.829851784740E-02 dipole=     -0.764435156449     -1.314450775963     -0.197895462529
 Energy=    8.298517847E-03 NIter=   0.
 Dipole moment=      -0.764435      -1.314451      -0.197895
 Leave Link  402 at Tue Feb  7 16:29:06 2017, MaxMem=  1048576000 cpu:        17.0
 (Enter /mnt/data/applications/G09/g09/l601.exe)
 Leave Link  601 at Tue Feb  7 16:29:06 2017, MaxMem=  1048576000 cpu:         0.2
 (Enter /mnt/data/applications/G09/g09/l716.exe)
 Dipole        =-7.64435156D-01-1.31445078D+00-1.97895463D-01
 Cartesian Forces:  Max     0.029545163 RMS     0.008392224
 Leave Link  716 at Tue Feb  7 16:29:06 2017, MaxMem=  1048576000 cpu:         0.3
 (Enter /mnt/data/applications/G09/g09/l120.exe)
 SvSCFP did not find density file   528.
 ONIOM: saving gridpoint  1
 ONIOM: restoring gridpoint  3
 ONIOM: calculating energy.
 ONIOM: gridpoint  1 method:  low   system:  model energy:     0.008298517847
 ONIOM: gridpoint  2 method:  high  system:  model energy:  -193.148481247907
 ONIOM: gridpoint  3 method:  low   system:  real  energy:     0.051515542727
 ONIOM: extrapolated energy =    -193.105264223028
 ONIOM: calculating first derivatives.
 ONIOM: calculating electric field derivatives.
 ONIOM: Integrating ONIOM file  4 number   619
 ONIOM: Dipole        =-6.05489458D-01-9.60062300D-01-1.49492233D-01
 ONIOM: Dipole moment (Debye):
    X=    -1.5390    Y=    -2.4402    Z=    -0.3800  Tot=     2.9099
 ONIOM: Integrating ONIOM file  5 number   695
 Saving ESP charges from gridpoint 2
 Leave Link  120 at Tue Feb  7 16:29:06 2017, MaxMem=  1048576000 cpu:         0.0
 (Enter /mnt/data/applications/G09/g09/l716.exe)
 Dipole        =-6.05489458D-01-9.60062300D-01-1.49492233D-01
 -------------------------------------------------------------------
 Center     Atomic                   Forces (Hartrees/Bohr)
 Number     Number              X              Y              Z
 -------------------------------------------------------------------
      1        6           0.022692826    0.050967366    0.009005793
      2        8          -0.047831778   -0.040601551   -0.005572198
      3        6           0.030781943   -0.011465731    0.001483236
      4        1          -0.005726559    0.009171207   -0.013654028
      5        1          -0.009905906   -0.015177801   -0.000763163
      6        1          -0.005058707    0.009808823    0.012374753
      7        6           0.009648968    0.032136900    0.001438869
      8        1          -0.009230747   -0.014899192    0.012266736
      9        1          -0.010603367   -0.012037184   -0.014156472
     10        6          -0.000370943   -0.001930691    0.000019000
     11        6          -0.014176413    0.017866090    0.003600625
     12        1          -0.002154708   -0.009074044   -0.012785563
     13        1           0.016002910   -0.001474589   -0.001202626
     14        1          -0.000814456   -0.012261117    0.009938508
     15        6           0.002155889   -0.018276860    0.012300836
     16        1          -0.006879617    0.002606800   -0.015346825
     17        1           0.004328812    0.016449098   -0.005651776
     18        1           0.012676778    0.001209457   -0.009968614
     19        6           0.000069403   -0.014224481   -0.016944535
     20        1          -0.004843982   -0.002090027    0.016050556
     21        1           0.014035751   -0.000986742    0.007938967
     22        1           0.005203986    0.014284439    0.009627753
 -------------------------------------------------------------------
 Cartesian Forces:  Max     0.050967366 RMS     0.015181806
 Leave Link  716 at Tue Feb  7 16:29:06 2017, MaxMem=  1048576000 cpu:         0.3
 (Enter /mnt/data/applications/G09/g09/l103.exe)

 GradGradGradGradGradGradGradGradGradGradGradGradGradGradGradGradGradGrad
 Berny optimization.
 FormGI is forming the generalized inverse of G from B-inverse, IUseBI=4.
 Internal  Forces:  Max     0.063208838 RMS     0.013051490
 Search for a local minimum.
 Step number   1 out of a maximum of  118
 All quantities printed in internal units (Hartrees-Bohrs-Radians)
 RMS Force = .13051D-01 SwitMx=.10000D-02 MixMth= 1
 Mixed Optimization -- RFO/linear search
 Second derivative matrix not updated -- first step.
 ITU=  0
     Eigenvalues ---    0.00237   0.00237   0.00237   0.00237   0.00237
     Eigenvalues ---    0.00237   0.00237   0.04356   0.04739   0.04739
     Eigenvalues ---    0.04739   0.05410   0.05720   0.05720   0.05720
     Eigenvalues ---    0.05720   0.05720   0.05720   0.07243   0.07243
     Eigenvalues ---    0.08669   0.12376   0.14387   0.14387   0.16000
     Eigenvalues ---    0.16000   0.16000   0.16000   0.16000   0.16000
     Eigenvalues ---    0.16000   0.16000   0.16000   0.16000   0.16000
     Eigenvalues ---    0.16000   0.21983   0.25000   0.25000   0.28519
     Eigenvalues ---    0.28519   0.28519   0.28519   0.28519   0.28519
     Eigenvalues ---    0.37230   0.37230   0.37230   0.37230   0.37230
     Eigenvalues ---    0.37230   0.37230   0.37230   0.37230   0.37230
     Eigenvalues ---    0.37230   0.37230   0.37230   0.37230   0.80209
 RFO step:  Lambda=-5.89658231D-02 EMin= 2.36824077D-03
 Linear search not attempted -- first point.
 Maximum step size (   0.300) exceeded in Quadratic search.
    -- Step size scaled by   0.732
 Iteration  1 RMS(Cart)=  0.17429099 RMS(Int)=  0.00765009
 Iteration  2 RMS(Cart)=  0.01397142 RMS(Int)=  0.00066625
 Iteration  3 RMS(Cart)=  0.00012281 RMS(Int)=  0.00066501
 Iteration  4 RMS(Cart)=  0.00000009 RMS(Int)=  0.00066501
 ITry= 1 IFail=0 DXMaxC= 6.96D-01 DCOld= 1.00D+10 DXMaxT= 3.00D-01 DXLimC= 3.00D+00 Rises=F
 Variable       Old X    -DE/DX   Delta X   Delta X   Delta X     New X
                                 (Linear)    (Quad)   (Total)
    R1        2.37803  -0.05936   0.00000  -0.05046  -0.05046   2.32757
    R2        2.91018  -0.01009   0.00000  -0.02146  -0.02146   2.88872
    R3        2.91018   0.01018   0.00000   0.02166   0.02166   2.93184
    R4        2.02201   0.01738   0.00000   0.02950   0.02950   2.05151
    R5        2.02201   0.01761   0.00000   0.02989   0.02989   2.05190
    R6        2.02201   0.01641   0.00000   0.02786   0.02786   2.04987
    R7        2.02201   0.02033   0.00000   0.03451   0.03451   2.05651
    R8        2.02201   0.02035   0.00000   0.03453   0.03453   2.05654
    R9        2.91018   0.02338   0.00000   0.04973   0.04973   2.95990
   R10        2.91018   0.00372   0.00000   0.00792   0.00792   2.91810
   R11        2.91018   0.01760   0.00000   0.03742   0.03742   2.94760
   R12        2.91018   0.01743   0.00000   0.03708   0.03708   2.94726
   R13        2.02201   0.01539   0.00000   0.02612   0.02612   2.04812
   R14        2.02201   0.01548   0.00000   0.02627   0.02627   2.04828
   R15        2.02201   0.01538   0.00000   0.02610   0.02610   2.04810
   R16        2.02201   0.01510   0.00000   0.02562   0.02562   2.04763
   R17        2.02201   0.01364   0.00000   0.02315   0.02315   2.04516
   R18        2.02201   0.01493   0.00000   0.02534   0.02534   2.04735
   R19        2.02201   0.01513   0.00000   0.02568   0.02568   2.04768
   R20        2.02201   0.01493   0.00000   0.02534   0.02534   2.04735
   R21        2.02201   0.01351   0.00000   0.02293   0.02293   2.04493
    A1        2.09241  -0.01292   0.00000  -0.03061  -0.03061   2.06180
    A2        2.09836   0.03714   0.00000   0.08799   0.08799   2.18635
    A3        2.09241  -0.02422   0.00000  -0.05738  -0.05738   2.03503
    A4        1.91063  -0.00165   0.00000  -0.00722  -0.00728   1.90336
    A5        1.91063   0.00730   0.00000   0.02692   0.02689   1.93752
    A6        1.91063  -0.00184   0.00000  -0.00695  -0.00702   1.90361
    A7        1.91063  -0.00191   0.00000  -0.00476  -0.00477   1.90587
    A8        1.91063  -0.00110   0.00000  -0.00872  -0.00883   1.90181
    A9        1.91063  -0.00081   0.00000   0.00074   0.00069   1.91132
   A10        1.91063  -0.02035   0.00000  -0.05139  -0.05375   1.85688
   A11        1.91063  -0.01998   0.00000  -0.05004  -0.05227   1.85837
   A12        1.91063   0.06321   0.00000   0.17773   0.17691   2.08755
   A13        1.91063   0.00454   0.00000  -0.02724  -0.03023   1.88040
   A14        1.91063  -0.01347   0.00000  -0.02351  -0.02362   1.88701
   A15        1.91063  -0.01395   0.00000  -0.02554  -0.02567   1.88497
   A16        1.91063  -0.00605   0.00000  -0.03926  -0.03869   1.87194
   A17        1.91063   0.00471   0.00000   0.03130   0.02950   1.94013
   A18        1.91063   0.00468   0.00000   0.03089   0.02906   1.93969
   A19        1.91063  -0.00389   0.00000  -0.02805  -0.02738   1.88325
   A20        1.91063  -0.00404   0.00000  -0.02888  -0.02823   1.88240
   A21        1.91063   0.00459   0.00000   0.03400   0.03249   1.94312
   A22        1.91063   0.00355   0.00000   0.01175   0.01167   1.92230
   A23        1.91063   0.00495   0.00000   0.01678   0.01667   1.92730
   A24        1.91063   0.00347   0.00000   0.01150   0.01141   1.92205
   A25        1.91063  -0.00415   0.00000  -0.01365  -0.01376   1.89687
   A26        1.91063  -0.00371   0.00000  -0.01287  -0.01293   1.89770
   A27        1.91063  -0.00411   0.00000  -0.01351  -0.01361   1.89702
   A28        1.91063   0.00683   0.00000   0.02330   0.02279   1.93342
   A29        1.91063   0.01442   0.00000   0.05019   0.04954   1.96017
   A30        1.91063   0.00388   0.00000   0.01051   0.01035   1.92098
   A31        1.91063  -0.00853   0.00000  -0.02359  -0.02450   1.88613
   A32        1.91063  -0.00704   0.00000  -0.02753  -0.02755   1.88309
   A33        1.91063  -0.00955   0.00000  -0.03288  -0.03318   1.87745
   A34        1.91063   0.00639   0.00000   0.02184   0.02134   1.93197
   A35        1.91063   0.00379   0.00000   0.01018   0.01001   1.92065
   A36        1.91063   0.01485   0.00000   0.05165   0.05100   1.96163
   A37        1.91063  -0.00678   0.00000  -0.02667  -0.02667   1.88396
   A38        1.91063  -0.00853   0.00000  -0.02359  -0.02449   1.88614
   A39        1.91063  -0.00971   0.00000  -0.03341  -0.03372   1.87692
    D1        1.19651  -0.00135   0.00000  -0.00642  -0.00640   1.19011
    D2       -2.99228  -0.00024   0.00000  -0.00019  -0.00022  -2.99250
    D3       -0.89788   0.00212   0.00000   0.01294   0.01290  -0.88499
    D4       -1.94508  -0.00144   0.00000  -0.00739  -0.00734  -1.95242
    D5        0.14931  -0.00032   0.00000  -0.00116  -0.00116   0.14816
    D6        2.24371   0.00204   0.00000   0.01197   0.01196   2.25567
    D7        2.02617   0.00944   0.00000   0.04578   0.04407   2.07024
    D8       -2.16262  -0.00969   0.00000  -0.04969  -0.04807  -2.21069
    D9       -0.06822  -0.00031   0.00000  -0.00278  -0.00274  -0.07096
   D10       -1.11542   0.00952   0.00000   0.04676   0.04508  -1.07034
   D11        0.97898  -0.00961   0.00000  -0.04872  -0.04706   0.93191
   D12        3.07337  -0.00023   0.00000  -0.00181  -0.00174   3.07163
   D13       -3.11765  -0.00015   0.00000  -0.00093  -0.00087  -3.11853
   D14       -1.02326  -0.00573   0.00000  -0.04016  -0.04040  -1.06366
   D15        1.07114   0.00564   0.00000   0.03957   0.03992   1.11105
   D16        1.07114  -0.00569   0.00000  -0.03242  -0.03286   1.03827
   D17       -3.11765  -0.01127   0.00000  -0.07165  -0.07239   3.09314
   D18       -1.02326   0.00010   0.00000   0.00807   0.00793  -1.01533
   D19       -1.02326   0.00554   0.00000   0.03097   0.03136  -0.99190
   D20        1.07114  -0.00005   0.00000  -0.00826  -0.00817   1.06296
   D21       -3.11765   0.01133   0.00000   0.07147   0.07215  -3.04551
   D22        1.05531  -0.00011   0.00000  -0.00086  -0.00088   1.05443
   D23       -3.13348   0.00001   0.00000  -0.00010  -0.00011  -3.13359
   D24       -1.03908   0.00013   0.00000   0.00067   0.00067  -1.03841
   D25       -1.03908   0.00021   0.00000   0.00203   0.00192  -1.03717
   D26        1.05531   0.00033   0.00000   0.00278   0.00269   1.05800
   D27       -3.13348   0.00045   0.00000   0.00356   0.00347  -3.13001
   D28       -3.13348  -0.00056   0.00000  -0.00475  -0.00465  -3.13813
   D29       -1.03908  -0.00044   0.00000  -0.00399  -0.00389  -1.04297
   D30        1.05531  -0.00032   0.00000  -0.00322  -0.00310   1.05221
   D31       -0.32343   0.00375   0.00000   0.02182   0.02187  -0.30156
   D32        1.77097   0.00631   0.00000   0.03793   0.03838   1.80935
   D33       -2.41782   0.00582   0.00000   0.03483   0.03520  -2.38262
   D34        1.77097  -0.00316   0.00000  -0.02427  -0.02452   1.74644
   D35       -2.41782  -0.00060   0.00000  -0.00816  -0.00802  -2.42584
   D36       -0.32343  -0.00109   0.00000  -0.01126  -0.01120  -0.33463
   D37       -2.41782  -0.00767   0.00000  -0.05601  -0.05652  -2.47434
   D38       -0.32343  -0.00511   0.00000  -0.03989  -0.04001  -0.36344
   D39        1.77097  -0.00561   0.00000  -0.04299  -0.04319   1.72778
   D40        0.35699  -0.00384   0.00000  -0.02275  -0.02281   0.33418
   D41        2.45138  -0.00591   0.00000  -0.03581  -0.03618   2.41521
   D42       -1.73741  -0.00640   0.00000  -0.03886  -0.03930  -1.77671
   D43       -1.73741   0.00318   0.00000   0.02410   0.02435  -1.71306
   D44        0.35699   0.00110   0.00000   0.01104   0.01097   0.36796
   D45        2.45138   0.00062   0.00000   0.00799   0.00785   2.45924
   D46        2.45138   0.00760   0.00000   0.05532   0.05583   2.50721
   D47       -1.73741   0.00553   0.00000   0.04226   0.04246  -1.69495
   D48        0.35699   0.00504   0.00000   0.03921   0.03933   0.39632
         Item               Value     Threshold  Converged?
 Maximum Force            0.063209     0.000450     NO 
 RMS     Force            0.013051     0.000300     NO 
 Maximum Displacement     0.696324     0.001800     NO 
 RMS     Displacement     0.179123     0.001200     NO 
 Predicted change in Energy=-3.138250D-02
 Lowest energy point so far.  Saving SCF results.
 GradGradGradGradGradGradGradGradGradGradGradGradGradGradGradGradGradGrad

 Leave Link  103 at Tue Feb  7 16:29:06 2017, MaxMem=  1048576000 cpu:         0.2
 (Enter /mnt/data/applications/G09/g09/l202.exe)
                          Input orientation:                          
 ---------------------------------------------------------------------
 Center     Atomic      Atomic             Coordinates (Angstroms)
 Number     Number       Type             X           Y           Z
 ---------------------------------------------------------------------
      1          6    10061002       -2.508632    0.488548    0.024824
      2          8    10081002       -2.109859    1.639297    0.208760
      3          6    10061003       -4.017425    0.245464   -0.009871
      4          1    10011000       -4.431217    0.711912   -0.898551
      5          1    10011000       -4.240283   -0.817090   -0.027637
      6          1    10011000       -4.469202    0.695768    0.867505
      7          6    10061003       -1.600192   -0.752965   -0.176218
      8          1    10011000       -1.823956   -1.433178    0.643264
      9          1    10011000       -1.926203   -1.227699   -1.099628
     10          6    10061003       -0.046106   -0.571250   -0.247861
     11          6    10061003        0.567999   -1.968271   -0.483942
     12          1    10011000        0.201726   -2.384375   -1.415267
     13          1    10011000        1.648757   -1.902841   -0.534160
     14          1    10011000        0.297716   -2.636102    0.325746
     15          6    10061003        0.359599    0.339754   -1.447221
     16          1    10011000       -0.452094    0.420293   -2.160502
     17          1    10011000        0.629158    1.339136   -1.131239
     18          1    10011000        1.214428   -0.082229   -1.961976
     19          6    10061003        0.518529   -0.021983    1.098212
     20          1    10011000       -0.186037   -0.187017    1.904755
     21          1    10011000        1.440103   -0.532780    1.350333
     22          1    10011000        0.734702    1.037369    1.052918
 ---------------------------------------------------------------------
                    Distance matrix (angstroms):
                    1          2          3          4          5
     1  C    0.000000
     2  O    1.231696   0.000000
     3  C    1.528643   2.372631   0.000000
     4  H    2.144492   2.734023   1.085610   0.000000
     5  H    2.169345   3.260126   1.085818   1.769971   0.000000
     6  H    2.144034   2.625012   1.084742   1.766539   1.772688
     7  C    1.551463   2.476062   2.620601   3.268384   2.645046
     8  H    2.131732   3.116189   2.838262   3.711660   2.582306
     9  H    2.132867   3.156783   2.780466   3.174527   2.583163
    10  C    2.694730   3.058447   4.061409   4.615095   4.207144
    11  C    3.969945   4.545911   5.113852   5.687481   4.965179
    12  H    4.203997   4.916383   5.166471   5.596262   4.910533
    13  H    4.828570   5.217841   6.082410   6.628408   6.009676
    14  H    4.210652   4.908069   5.199664   5.922070   4.901746
    15  C    3.227354   3.244890   4.607951   4.836472   4.951002
    16  H    3.001610   3.138082   4.167417   4.184612   4.520023
    17  H    3.450465   3.063970   4.903501   5.104405   5.438630
    18  H    4.258444   4.327428   5.593781   5.799555   5.834000
    19  C    3.252155   3.234100   4.676993   5.387546   4.954394
    20  H    3.063491   3.148478   4.304924   5.166058   4.535200
    21  H    4.288659   4.315477   5.678066   6.409301   5.852043
    22  H    3.446360   3.027614   4.933492   5.531805   5.418218
                    6          7          8          9         10
     6  H    0.000000
     7  C    3.379261   0.000000
     8  H    3.402943   1.088260   0.000000
     9  H    3.746489   1.088275   1.757938   0.000000
    10  C    4.734254   1.566314   2.167436   2.165918   0.000000
    11  C    5.856356   2.504539   2.697844   2.673679   1.544192
    12  H    6.042838   2.728305   3.040676   2.442459   2.170641
    13  H    6.793147   3.464968   3.696842   3.681835   2.174318
    14  H    5.841093   2.720336   2.459540   2.993510   2.170450
    15  C    5.366752   2.578811   3.504473   2.793318   1.559804
    16  H    5.038042   2.575276   3.630215   2.452413   2.192300
    17  H    5.513816   3.202960   4.105162   3.622086   2.210409
    18  H    6.396475   3.400133   4.224229   3.452435   2.183180
    19  C    5.044388   2.578272   2.772307   3.501566   1.559621
    20  H    4.494519   2.578872   2.413930   3.624571   2.191112
    21  H    6.054943   3.409140   3.459009   4.221047   2.182778
    22  H    5.218398   3.188699   3.580245   4.104193   2.211185
                   11         12         13         14         15
    11  C    0.000000
    12  H    1.083820   0.000000
    13  H    1.083901   1.761285   0.000000
    14  H    1.083810   1.761734   1.761369   0.000000
    15  C    2.509646   2.728887   2.743144   3.464529   0.000000
    16  H    3.091389   2.974730   3.529237   4.010635   1.083560
    17  H    3.370708   3.758710   3.450579   4.246784   1.082252
    18  H    2.481857   2.573778   2.354130   3.549127   1.083408
    19  C    2.508724   3.463934   2.734900   2.734791   2.575916
    20  H    3.073648   4.000161   3.501260   2.953863   3.436707
    21  H    2.487120   3.551130   2.339212   2.603611   3.123318
    22  H    3.379882   4.252568   3.463978   3.770163   2.622607
                   16         17         18         19         20
    16  H    0.000000
    17  H    1.752929   0.000000
    18  H    1.751924   1.747267   0.000000
    19  C    3.428839   2.614447   3.138894   0.000000
    20  H    4.118972   3.494416   4.113865   1.083587   0.000000
    21  H    4.100576   3.212460   3.350420   1.083410   1.752503
    22  H    3.480709   2.207429   3.251649   1.082132   1.752857
                   21         22
    21  H    0.000000
    22  H    1.746830   0.000000
 Symmetry turned off by external request.
 Stoichiometry    C7H14O
 Framework group  C1[X(C7H14O)]
 Deg. of freedom    60
 Full point group                 C1      NOp   1
 Rotational constants (GHZ):      3.2504356      1.2223541      1.1316445
 Leave Link  202 at Tue Feb  7 16:29:07 2017, MaxMem=  1048576000 cpu:         0.0
 (Enter /mnt/data/applications/G09/g09/l120.exe)
 SvSCFP did not find density file   528.
 ONIOM: saving gridpoint 17
 ONIOM: restoring gridpoint  3
 ONIOM: restoring gridpoint  3 on chk file.
 ONIOM: generating point  3 -- low level on real system.
 Leave Link  120 at Tue Feb  7 16:29:07 2017, MaxMem=  1048576000 cpu:         0.0
 (Enter /mnt/data/applications/G09/g09/l301.exe)
 Standard basis: STO-3G (5D, 7F)
 Ernie: Thresh=  0.10000D-02 Tol=  0.10000D-05 Strict=F.
    54 basis functions,   162 primitive gaussians,    54 cartesian basis functions
    32 alpha electrons       32 beta electrons
       nuclear repulsion energy       395.1444198080 Hartrees.
 IExCor=    0 DFT=F Ex=HF Corr=None ExCW=0 ScaHFX=  1.000000
 ScaDFX=  1.000000  1.000000  1.000000  1.000000 ScalE2=  1.000000  1.000000
 IRadAn=      0 IRanWt=     -1 IRanGd=            0 ICorTp=0 IEmpDi=  4
 NAtoms=   22 NActive=   22 NUniq=   22 SFac= 1.00D+00 NAtFMM=   60 NAOKFM=F Big=F
 Integral buffers will be    131072 words long.
 Raffenetti 1 integral format.
 Two-electron integral symmetry is turned off.
 Leave Link  301 at Tue Feb  7 16:29:07 2017, MaxMem=  1048576000 cpu:         0.4
 (Enter /mnt/data/applications/G09/g09/l402.exe)
 External calculation of energy and first derivatives.
 Running external command "./sictwo_files/sictwo_g09d01 R"
         input file       "/scratch/Gau-14746.EIn"
         output file      "/scratch/Gau-14746.EOu"
         message file     "/scratch/Gau-14746.EMs"
         fchk file        "/scratch/Gau-14746.EFC"
         mat. el file     "/scratch/Gau-14746.EUF"

---------------------------- SICTWO Version 1.0 STARTED -----------------------------

MM calculations started
MM calculations finished ....
Information recovery

---------------------------- SICTWO Version 1.0 FINISHED -----------------------------

 Recovered energy= 0.381790146777E-01 dipole=     -0.498869674924     -1.410841209998     -0.225435586539
 Energy=    3.817901468E-02 NIter=   0.
 Dipole moment=      -0.498870      -1.410841      -0.225436
 Leave Link  402 at Tue Feb  7 16:29:10 2017, MaxMem=  1048576000 cpu:        21.6
 (Enter /mnt/data/applications/G09/g09/l716.exe)
 Dipole        =-4.98869675D-01-1.41084121D+00-2.25435587D-01
 Cartesian Forces:  Max     0.014496191 RMS     0.005403482
 Leave Link  716 at Tue Feb  7 16:29:10 2017, MaxMem=  1048576000 cpu:         0.2
 (Enter /mnt/data/applications/G09/g09/l120.exe)
 SvSCFP did not find density file   528.
 ONIOM: saving gridpoint  3
 ONIOM: restoring gridpoint  2
 ONIOM: restoring gridpoint  2 on chk file.
 ONIOM: generating point  2 -- high level on model system.
 Leave Link  120 at Tue Feb  7 16:29:10 2017, MaxMem=  1048576000 cpu:         0.0
 (Enter /mnt/data/applications/G09/g09/l301.exe)
 Standard basis: 6-31G(d) (6D, 7F)
 Ernie: Thresh=  0.10000D-02 Tol=  0.10000D-05 Strict=F.
    72 basis functions,   136 primitive gaussians,    72 cartesian basis functions
    16 alpha electrons       16 beta electrons
       nuclear repulsion energy       117.8628714002 Hartrees.
 IExCor=  402 DFT=T Ex+Corr=B3LYP ExCW=0 ScaHFX=  0.200000
 ScaDFX=  0.800000  0.720000  1.000000  0.810000 ScalE2=  1.000000  1.000000
 IRadAn=      0 IRanWt=     -1 IRanGd=            0 ICorTp=0 IEmpDi=  4
 NAtoms=   22 NActive=   10 NUniq=   10 SFac= 1.00D+00 NAtFMM=   60 NAOKFM=F Big=F
 Integral buffers will be    131072 words long.
 Raffenetti 2 integral format.
 Two-electron integral symmetry is turned off.
 Leave Link  301 at Tue Feb  7 16:29:10 2017, MaxMem=  1048576000 cpu:         0.4
 (Enter /mnt/data/applications/G09/g09/l302.exe)
 NPDir=0 NMtPBC=     1 NCelOv=     1 NCel=       1 NClECP=     1 NCelD=      1
         NCelK=      1 NCelE2=     1 NClLst=     1 CellRange=     0.0.
 One-electron integrals computed using PRISM.
 NBasis=    72 RedAO= T EigKep=  4.85D-03  NBF=    72
 NBsUse=    72 1.00D-06 EigRej= -1.00D+00 NBFU=    72
 Precomputing XC quadrature grid using
 IXCGrd= 4 IRadAn=           0 IRanWt=          -1 IRanGd=           0 AccXCQ= 0.00D+00.
 Generated NRdTot=       0 NPtTot=           0 NUsed=           0 NTot=          32
 NSgBfM=    72    72    72    72    72 MxSgAt=    10 MxSgA2=    10.
 Leave Link  302 at Tue Feb  7 16:29:11 2017, MaxMem=  1048576000 cpu:         1.9
 (Enter /mnt/data/applications/G09/g09/l303.exe)
 DipDrv:  MaxL=1.
 Leave Link  303 at Tue Feb  7 16:29:11 2017, MaxMem=  1048576000 cpu:         0.3
 (Enter /mnt/data/applications/G09/g09/l401.exe)
 Initial guess from the checkpoint file:  "C_5.chk"
 B after Tr=    -0.260899    0.743398    0.121346
         Rot=    0.997737   -0.004356    0.009495   -0.066418 Ang=  -7.71 deg.
 Guess basis will be translated and rotated to current coordinates.
 JPrj=2 DoOrth=T DoCkMO=T.
 Generating alternative initial guess.
 ExpMin= 1.61D-01 ExpMax= 5.48D+03 ExpMxC= 8.25D+02 IAcc=1 IRadAn=         1 AccDes= 0.00D+00
 Harris functional with IExCor=  402 and IRadAn=       1 diagonalized for initial guess.
 HarFok:  IExCor=  402 AccDes= 0.00D+00 IRadAn=         1 IDoV= 1 UseB2=F ITyADJ=14
 ICtDFT=  3500011 ScaDFX=  1.000000  1.000000  1.000000  1.000000
 FoFCou: FMM=F IPFlag=           0 FMFlag=      100000 FMFlg1=           0
         NFxFlg=           0 DoJE=T BraDBF=F KetDBF=T FulRan=T
         wScrn=  0.000000 ICntrl=     500 IOpCl=  0 I1Cent=   200000004 NGrid=           0
         NMat0=    1 NMatS0=      1 NMatT0=    0 NMatD0=    1 NMtDS0=    0 NMtDT0=    0
 Symmetry not used in FoFCou.
 Harris En= -193.196714514390    
 Leave Link  401 at Tue Feb  7 16:29:11 2017, MaxMem=  1048576000 cpu:         2.5
 (Enter /mnt/data/applications/G09/g09/l502.exe)
 Closed shell SCF:
 Using DIIS extrapolation, IDIIS=  1040.
 Two-electron integral symmetry not used.
 Keep R1 ints in memory in canonical form, NReq=4378010.
 IVT=       28630 IEndB=       28630 NGot=  1048576000 MDV=  1045092865
 LenX=  1045092865 LenY=  1045087240
 Requested convergence on RMS density matrix=1.00D-08 within 100 cycles.
 Requested convergence on MAX density matrix=1.00D-06.
 Requested convergence on             energy=1.00D-06.
 No special actions if energy rises.
 FoFCou: FMM=F IPFlag=           0 FMFlag=           0 FMFlg1=           0
         NFxFlg=           0 DoJE=F BraDBF=F KetDBF=F FulRan=T
         wScrn=  0.000000 ICntrl=     600 IOpCl=  0 I1Cent=           0 NGrid=           0
         NMat0=    1 NMatS0=   2628 NMatT0=    0 NMatD0=    1 NMtDS0=    0 NMtDT0=    0
 Symmetry not used in FoFCou.
 Integral accuracy reduced to 1.0D-05 until final iterations.

 Cycle   1  Pass 0  IDiag  1:
 E= -193.142288270058    
 DIIS: error= 6.41D-03 at cycle   1 NSaved=   1.
 NSaved= 1 IEnMin= 1 EnMin= -193.142288270058     IErMin= 1 ErrMin= 6.41D-03
 ErrMax= 6.41D-03  0.00D+00 EMaxC= 1.00D-01 BMatC= 3.81D-03 BMatP= 3.81D-03
 IDIUse=3 WtCom= 9.36D-01 WtEn= 6.41D-02
 Coeff-Com:  0.100D+01
 Coeff-En:   0.100D+01
 Coeff:      0.100D+01
 Gap=     1.893 Goal=   None    Shift=    0.000
 GapD=    1.893 DampG=2.000 DampE=1.000 DampFc=2.0000 IDamp=-1.
 RMSDP=1.44D-03 MaxDP=1.99D-02              OVMax= 3.04D-02

 Cycle   2  Pass 0  IDiag  1:
 E= -193.148568230678     Delta-E=       -0.006279960619 Rises=F Damp=F
 DIIS: error= 2.56D-03 at cycle   2 NSaved=   2.
 NSaved= 2 IEnMin= 2 EnMin= -193.148568230678     IErMin= 2 ErrMin= 2.56D-03
 ErrMax= 2.56D-03  0.00D+00 EMaxC= 1.00D-01 BMatC= 5.64D-04 BMatP= 3.81D-03
 IDIUse=3 WtCom= 9.74D-01 WtEn= 2.56D-02
 Coeff-Com:  0.149D+00 0.851D+00
 Coeff-En:   0.000D+00 0.100D+01
 Coeff:      0.146D+00 0.854D+00
 Gap=     0.225 Goal=   None    Shift=    0.000
 RMSDP=5.88D-04 MaxDP=1.02D-02 DE=-6.28D-03 OVMax= 1.64D-02

 Cycle   3  Pass 0  IDiag  1:
 E= -193.148255265641     Delta-E=        0.000312965036 Rises=F Damp=F
 DIIS: error= 4.01D-03 at cycle   3 NSaved=   3.
 NSaved= 3 IEnMin= 2 EnMin= -193.148568230678     IErMin= 2 ErrMin= 2.56D-03
 ErrMax= 4.01D-03  0.00D+00 EMaxC= 1.00D-01 BMatC= 1.01D-03 BMatP= 5.64D-04
 IDIUse=3 WtCom= 1.36D-01 WtEn= 8.64D-01
 Coeff-Com: -0.194D-01 0.584D+00 0.436D+00
 Coeff-En:   0.000D+00 0.602D+00 0.398D+00
 Coeff:     -0.265D-02 0.599D+00 0.403D+00
 Gap=     0.229 Goal=   None    Shift=    0.000
 RMSDP=3.87D-04 MaxDP=7.95D-03 DE= 3.13D-04 OVMax= 1.32D-02

 Cycle   4  Pass 0  IDiag  1:
 E= -193.149045255544     Delta-E=       -0.000789989903 Rises=F Damp=F
 DIIS: error= 8.95D-04 at cycle   4 NSaved=   4.
 NSaved= 4 IEnMin= 4 EnMin= -193.149045255544     IErMin= 4 ErrMin= 8.95D-04
 ErrMax= 8.95D-04  0.00D+00 EMaxC= 1.00D-01 BMatC= 4.99D-05 BMatP= 5.64D-04
 IDIUse=3 WtCom= 9.91D-01 WtEn= 8.95D-03
 Coeff-Com: -0.249D-01 0.293D+00 0.249D+00 0.483D+00
 Coeff-En:   0.000D+00 0.000D+00 0.000D+00 0.100D+01
 Coeff:     -0.247D-01 0.290D+00 0.247D+00 0.488D+00
 Gap=     0.228 Goal=   None    Shift=    0.000
 RMSDP=7.78D-05 MaxDP=1.27D-03 DE=-7.90D-04 OVMax= 2.13D-03

 Cycle   5  Pass 0  IDiag  1:
 E= -193.149086597681     Delta-E=       -0.000041342137 Rises=F Damp=F
 DIIS: error= 1.11D-04 at cycle   5 NSaved=   5.
 NSaved= 5 IEnMin= 5 EnMin= -193.149086597681     IErMin= 5 ErrMin= 1.11D-04
 ErrMax= 1.11D-04  0.00D+00 EMaxC= 1.00D-01 BMatC= 9.54D-07 BMatP= 4.99D-05
 IDIUse=3 WtCom= 9.99D-01 WtEn= 1.11D-03
 Coeff-Com: -0.763D-02 0.642D-01 0.641D-01 0.172D+00 0.707D+00
 Coeff-En:   0.000D+00 0.000D+00 0.000D+00 0.000D+00 0.100D+01
 Coeff:     -0.762D-02 0.641D-01 0.640D-01 0.172D+00 0.707D+00
 Gap=     0.228 Goal=   None    Shift=    0.000
 RMSDP=1.76D-05 MaxDP=2.25D-04 DE=-4.13D-05 OVMax= 2.67D-04

 Cycle   6  Pass 0  IDiag  1:
 E= -193.149087515764     Delta-E=       -0.000000918083 Rises=F Damp=F
 DIIS: error= 1.50D-05 at cycle   6 NSaved=   6.
 NSaved= 6 IEnMin= 6 EnMin= -193.149087515764     IErMin= 6 ErrMin= 1.50D-05
 ErrMax= 1.50D-05  0.00D+00 EMaxC= 1.00D-01 BMatC= 2.37D-08 BMatP= 9.54D-07
 IDIUse=1 WtCom= 1.00D+00 WtEn= 0.00D+00
 Coeff-Com: -0.916D-03 0.421D-02 0.538D-02 0.222D-01 0.177D+00 0.792D+00
 Coeff:     -0.916D-03 0.421D-02 0.538D-02 0.222D-01 0.177D+00 0.792D+00
 Gap=     0.228 Goal=   None    Shift=    0.000
 RMSDP=3.23D-06 MaxDP=4.46D-05 DE=-9.18D-07 OVMax= 4.91D-05

 Initial convergence to 1.0D-05 achieved.  Increase integral accuracy.
 Cycle   7  Pass 1  IDiag  1:
[...]
   D21       -3.07961   0.00000   0.00092  -0.00006   0.00087  -3.07874
   D22        1.04760   0.00000   0.00005  -0.00003   0.00002   1.04762
   D23        3.14151   0.00000   0.00005  -0.00003   0.00001   3.14153
   D24       -1.04795   0.00000   0.00005  -0.00003   0.00002  -1.04793
   D25       -1.05656   0.00000   0.00010  -0.00003   0.00007  -1.05649
   D26        1.03735   0.00000   0.00010  -0.00003   0.00006   1.03741
   D27        3.13108   0.00000   0.00010  -0.00004   0.00007   3.13114
   D28       -3.13304   0.00000   0.00010  -0.00003   0.00008  -3.13296
   D29       -1.03913   0.00000   0.00010  -0.00003   0.00007  -1.03906
   D30        1.05459   0.00000   0.00010  -0.00003   0.00007   1.05467
   D31       -0.95391   0.00000  -0.00010   0.00001  -0.00009  -0.95401
   D32        1.15249   0.00000  -0.00013   0.00001  -0.00012   1.15237
   D33       -3.04228   0.00000  -0.00012   0.00001  -0.00010  -3.04238
   D34        1.11390   0.00000  -0.00012   0.00002  -0.00010   1.11380
   D35       -3.06289   0.00000  -0.00015   0.00002  -0.00013  -3.06301
   D36       -0.97447   0.00000  -0.00013   0.00002  -0.00011  -0.97458
   D37       -3.11231   0.00000  -0.00014   0.00001  -0.00012  -3.11243
   D38       -1.00591   0.00000  -0.00016   0.00002  -0.00015  -1.00605
   D39        1.08251   0.00000  -0.00015   0.00002  -0.00013   1.08237
   D40        0.95645   0.00000  -0.00013   0.00000  -0.00013   0.95632
   D41        3.04514   0.00000  -0.00014   0.00000  -0.00014   3.04500
   D42       -1.14919   0.00000  -0.00015   0.00000  -0.00016  -1.14934
   D43       -1.11081   0.00000  -0.00014  -0.00001  -0.00015  -1.11096
   D44        0.97788   0.00000  -0.00016  -0.00001  -0.00016   0.97772
   D45        3.06674   0.00000  -0.00017  -0.00001  -0.00018   3.06656
   D46        3.11582   0.00000  -0.00016   0.00000  -0.00016   3.11566
   D47       -1.07868   0.00000  -0.00017   0.00000  -0.00017  -1.07885
   D48        1.01018   0.00000  -0.00019   0.00000  -0.00019   1.00999
         Item               Value     Threshold  Converged?
 Maximum Force            0.000004     0.000450     YES
 RMS     Force            0.000001     0.000300     YES
 Maximum Displacement     0.012225     0.001800     NO 
 RMS     Displacement     0.002634     0.001200     NO 
 Predicted change in Energy=-1.718573D-08
 Optimization completed on the basis of negligible forces.
    -- Stationary point found.
                           ----------------------------
                           !   Optimized Parameters   !
                           ! (Angstroms and Degrees)  !
 --------------------------                            --------------------------
 ! Name  Definition              Value          Derivative Info.                !
 --------------------------------------------------------------------------------
 ! R1    R(1,2)                  1.2136         -DE/DX =    0.0                 !
 ! R2    R(1,3)                  1.5251         -DE/DX =    0.0                 !
 ! R3    R(1,7)                  1.5376         -DE/DX =    0.0                 !
 ! R4    R(3,4)                  1.0969         -DE/DX =    0.0                 !
 ! R5    R(3,5)                  1.0974         -DE/DX =    0.0                 !
 ! R6    R(3,6)                  1.0916         -DE/DX =    0.0                 !
 ! R7    R(7,8)                  1.1008         -DE/DX =    0.0                 !
 ! R8    R(7,9)                  1.1011         -DE/DX =    0.0                 !
 ! R9    R(7,10)                 1.5403         -DE/DX =    0.0                 !
 ! R10   R(10,11)                1.543          -DE/DX =    0.0                 !
 ! R11   R(10,15)                1.5374         -DE/DX =    0.0                 !
 ! R12   R(10,19)                1.5373         -DE/DX =    0.0                 !
 ! R13   R(11,12)                1.096          -DE/DX =    0.0                 !
 ! R14   R(11,13)                1.096          -DE/DX =    0.0                 !
 ! R15   R(11,14)                1.096          -DE/DX =    0.0                 !
 ! R16   R(15,16)                1.0958         -DE/DX =    0.0                 !
 ! R17   R(15,17)                1.0939         -DE/DX =    0.0                 !
 ! R18   R(15,18)                1.0962         -DE/DX =    0.0                 !
 ! R19   R(19,20)                1.0958         -DE/DX =    0.0                 !
 ! R20   R(19,21)                1.0962         -DE/DX =    0.0                 !
 ! R21   R(19,22)                1.0941         -DE/DX =    0.0                 !
 ! A1    A(2,1,3)              120.8137         -DE/DX =    0.0                 !
 ! A2    A(2,1,7)              125.4818         -DE/DX =    0.0                 !
 ! A3    A(3,1,7)              113.7044         -DE/DX =    0.0                 !
 ! A4    A(1,3,4)              111.1146         -DE/DX =    0.0                 !
 ! A5    A(1,3,5)              110.3791         -DE/DX =    0.0                 !
 ! A6    A(1,3,6)              109.4372         -DE/DX =    0.0                 !
 ! A7    A(4,3,5)              106.9024         -DE/DX =    0.0                 !
 ! A8    A(4,3,6)              109.6692         -DE/DX =    0.0                 !
 ! A9    A(5,3,6)              109.2936         -DE/DX =    0.0                 !
 ! A10   A(1,7,8)              106.7489         -DE/DX =    0.0                 !
 ! A11   A(1,7,9)              106.4969         -DE/DX =    0.0                 !
 ! A12   A(1,7,10)             118.4721         -DE/DX =    0.0                 !
 ! A13   A(8,7,9)              104.4133         -DE/DX =    0.0                 !
 ! A14   A(8,7,10)             109.9264         -DE/DX =    0.0                 !
 ! A15   A(9,7,10)             109.8293         -DE/DX =    0.0                 !
 ! A16   A(7,10,11)            108.009          -DE/DX =    0.0                 !
 ! A17   A(7,10,15)            111.309          -DE/DX =    0.0                 !
 ! A18   A(7,10,19)            111.2133         -DE/DX =    0.0                 !
 ! A19   A(11,10,15)           108.119          -DE/DX =    0.0                 !
 ! A20   A(11,10,19)           108.1576         -DE/DX =    0.0                 !
 ! A21   A(15,10,19)           109.9102         -DE/DX =    0.0                 !
 ! A22   A(10,11,12)           111.193          -DE/DX =    0.0                 !
 ! A23   A(10,11,13)           111.2876         -DE/DX =    0.0                 !
 ! A24   A(10,11,14)           111.2037         -DE/DX =    0.0                 !
 ! A25   A(12,11,13)           107.6237         -DE/DX =    0.0                 !
 ! A26   A(12,11,14)           107.7426         -DE/DX =    0.0                 !
 ! A27   A(13,11,14)           107.6097         -DE/DX =    0.0                 !
 ! A28   A(10,15,16)           111.0956         -DE/DX =    0.0                 !
 ! A29   A(10,15,17)           112.1213         -DE/DX =    0.0                 !
 ! A30   A(10,15,18)           110.9904         -DE/DX =    0.0                 !
 ! A31   A(16,15,17)           107.7926         -DE/DX =    0.0                 !
 ! A32   A(16,15,18)           107.5808         -DE/DX =    0.0                 !
 ! A33   A(17,15,18)           107.0423         -DE/DX =    0.0                 !
 ! A34   A(10,19,20)           111.0916         -DE/DX =    0.0                 !
 ! A35   A(10,19,21)           111.0024         -DE/DX =    0.0                 !
 ! A36   A(10,19,22)           112.0787         -DE/DX =    0.0                 !
 ! A37   A(20,19,21)           107.5911         -DE/DX =    0.0                 !
 ! A38   A(20,19,22)           107.7834         -DE/DX =    0.0                 !
 ! A39   A(21,19,22)           107.0785         -DE/DX =    0.0                 !
 ! D1    D(2,1,3,4)            125.1048         -DE/DX =    0.0                 !
 ! D2    D(2,1,3,5)           -116.4753         -DE/DX =    0.0                 !
 ! D3    D(2,1,3,6)              3.8469         -DE/DX =    0.0                 !
 ! D4    D(7,1,3,4)            -54.9538         -DE/DX =    0.0                 !
 ! D5    D(7,1,3,5)             63.4661         -DE/DX =    0.0                 !
 ! D6    D(7,1,3,6)           -176.2116         -DE/DX =    0.0                 !
 ! D7    D(2,1,7,8)            127.2245         -DE/DX =    0.0                 !
 ! D8    D(2,1,7,9)           -121.6613         -DE/DX =    0.0                 !
 ! D9    D(2,1,7,10)             2.6072         -DE/DX =    0.0                 !
 ! D10   D(3,1,7,8)            -52.7137         -DE/DX =    0.0                 !
 ! D11   D(3,1,7,9)             58.4005         -DE/DX =    0.0                 !
 ! D12   D(3,1,7,10)          -177.331          -DE/DX =    0.0                 !
 ! D13   D(1,7,10,11)          179.4731         -DE/DX =    0.0                 !
 ! D14   D(1,7,10,15)          -61.984          -DE/DX =    0.0                 !
 ! D15   D(1,7,10,19)           60.9387         -DE/DX =    0.0                 !
 ! D16   D(8,7,10,11)           56.4274         -DE/DX =    0.0                 !
 ! D17   D(8,7,10,15)          174.9703         -DE/DX =    0.0                 !
 ! D18   D(8,7,10,19)          -62.1069         -DE/DX =    0.0                 !
 ! D19   D(9,7,10,11)          -57.9143         -DE/DX =    0.0                 !
 ! D20   D(9,7,10,15)           60.6286         -DE/DX =    0.0                 !
 ! D21   D(9,7,10,19)         -176.4486         -DE/DX =    0.0                 !
 ! D22   D(7,10,11,12)          60.0231         -DE/DX =    0.0                 !
 ! D23   D(7,10,11,13)         179.9953         -DE/DX =    0.0                 !
 ! D24   D(7,10,11,14)         -60.0431         -DE/DX =    0.0                 !
 ! D25   D(15,10,11,12)        -60.5362         -DE/DX =    0.0                 !
 ! D26   D(15,10,11,13)         59.4359         -DE/DX =    0.0                 !
 ! D27   D(15,10,11,14)        179.3975         -DE/DX =    0.0                 !
 ! D28   D(19,10,11,12)       -179.51           -DE/DX =    0.0                 !
 ! D29   D(19,10,11,13)        -59.5378         -DE/DX =    0.0                 !
 ! D30   D(19,10,11,14)         60.4238         -DE/DX =    0.0                 !
 ! D31   D(7,10,15,16)         -54.6553         -DE/DX =    0.0                 !
 ! D32   D(7,10,15,17)          66.0328         -DE/DX =    0.0                 !
 ! D33   D(7,10,15,18)        -174.31           -DE/DX =    0.0                 !
 ! D34   D(11,10,15,16)         63.8216         -DE/DX =    0.0                 !
 ! D35   D(11,10,15,17)       -175.4904         -DE/DX =    0.0                 !
 ! D36   D(11,10,15,18)        -55.8331         -DE/DX =    0.0                 !
 ! D37   D(19,10,15,16)       -178.3223         -DE/DX =    0.0                 !
 ! D38   D(19,10,15,17)        -57.6343         -DE/DX =    0.0                 !
 ! D39   D(19,10,15,18)         62.023          -DE/DX =    0.0                 !
 ! D40   D(7,10,19,20)          54.8005         -DE/DX =    0.0                 !
 ! D41   D(7,10,19,21)         174.4734         -DE/DX =    0.0                 !
 ! D42   D(7,10,19,22)         -65.8437         -DE/DX =    0.0                 !
 ! D43   D(11,10,19,20)        -63.6445         -DE/DX =    0.0                 !
 ! D44   D(11,10,19,21)         56.0285         -DE/DX =    0.0                 !
 ! D45   D(11,10,19,22)        175.7114         -DE/DX =    0.0                 !
 ! D46   D(15,10,19,20)        178.5234         -DE/DX =    0.0                 !
 ! D47   D(15,10,19,21)        -61.8037         -DE/DX =    0.0                 !
 ! D48   D(15,10,19,22)         57.8792         -DE/DX =    0.0                 !
 --------------------------------------------------------------------------------
 Lowest energy point so far.  Saving SCF results.
 GradGradGradGradGradGradGradGradGradGradGradGradGradGradGradGradGradGrad

 Largest change from initial coordinates is atom    4       0.485 Angstoms.
 Leave Link  103 at Tue Feb  7 16:36:07 2017, MaxMem=  1048576000 cpu:         0.1
 (Enter /mnt/data/applications/G09/g09/l202.exe)
                          Input orientation:                          
 ---------------------------------------------------------------------
 Center     Atomic      Atomic             Coordinates (Angstroms)
 Number     Number       Type             X           Y           Z
 ---------------------------------------------------------------------
      1          6    10061002       -2.439816    0.558992    0.029464
      2          8    10081002       -1.987218    1.671961    0.200799
      3          6    10061003       -3.943335    0.309701    0.086691
      4          1    10011000       -4.298417   -0.176543   -0.830152
      5          1    10011000       -4.187923   -0.362008    0.919383
      6          1    10011000       -4.463995    1.259190    0.224337
      7          6    10061003       -1.613861   -0.706249   -0.255245
      8          1    10011000       -1.924372   -1.460744    0.483735
      9          1    10011000       -1.971083   -1.102682   -1.218372
     10          6    10061003       -0.078009   -0.591570   -0.274772
     11          6    10061003        0.501220   -1.991601   -0.566607
     12          1    10011000        0.153117   -2.370568   -1.534252
     13          1    10011000        1.596721   -1.971439   -0.592769
     14          1    10011000        0.201139   -2.712849    0.202086
     15          6    10061003        0.396932    0.362775   -1.382577
     16          1    10011000       -0.001991    0.063895   -2.358425
     17          1    10011000        0.087681    1.395579   -1.197118
     18          1    10011000        1.490546    0.363492   -1.458054
     19          6    10061003        0.462231   -0.123794    1.086367
     20          1    10011000        0.113365   -0.776459    1.894510
     21          1    10011000        1.558261   -0.137005    1.099627
     22          1    10011000        0.150318    0.897686    1.323588
 ---------------------------------------------------------------------
                    Distance matrix (angstroms):
                    1          2          3          4          5
     1  C    0.000000
     2  O    1.213631   0.000000
     3  C    1.525119   2.386454   0.000000
     4  H    2.175856   3.133922   1.096867   0.000000
     5  H    2.167043   3.081638   1.097448   1.762804   0.000000
     6  H    2.150709   2.511047   1.091586   1.789047   1.785381
     7  C    1.537562   2.450154   2.564279   2.796059   2.850272
     8  H    2.133396   3.146084   2.714468   3.001926   2.553562
     9  H    2.130250   3.116560   2.754595   2.534744   3.167486
    10  C    2.644709   2.999136   3.985435   4.276977   4.286035
    11  C    3.938340   4.494766   5.047460   5.138132   5.181872
    12  H    4.213174   4.892185   5.156764   5.012550   5.375804
    13  H    4.804570   5.171917   6.029717   6.166900   6.191848
    14  H    4.208252   4.900557   5.130866   5.267292   5.030391
    15  C    3.174823   3.147256   4.582519   4.758396   5.181238
    16  H    3.448207   3.616162   4.644696   4.566476   5.333615
    17  H    2.931318   2.517094   4.367652   4.673766   5.084238
    18  H    4.206980   4.069241   5.649441   5.847904   6.198675
    19  C    3.163086   3.163663   4.538312   5.132211   4.659245
    20  H    3.432282   3.643606   4.572173   5.219913   4.429867
    21  H    4.196937   4.080523   5.611875   6.166545   5.753411
    22  H    2.915179   2.535590   4.316670   5.058044   4.535477
                    6          7          8          9         10
     6  H    0.000000
     7  C    3.495170   0.000000
     8  H    3.730283   1.100804   0.000000
     9  H    3.724842   1.101081   1.739988   0.000000
    10  C    4.786574   1.540251   2.177120   2.176085   0.000000
    11  C    5.987202   2.494522   2.696019   2.706891   1.542972
    12  H    6.130701   2.743725   3.035788   2.493901   2.191927
    13  H    6.916422   3.467342   3.717225   3.724962   2.193144
    14  H    6.127076   2.744051   2.482919   3.054323   2.192063
    15  C    5.197532   2.541058   3.492390   2.789627   1.537392
    16  H    5.292340   2.759459   3.754723   2.556941   2.185640
    17  H    4.770418   2.863573   3.877138   3.237324   2.197029
    18  H    6.252141   3.496918   4.331286   3.766960   2.184643
    19  C    5.188780   2.539554   2.801156   3.491570   1.537327
    20  H    5.280678   2.758565   2.571167   3.760502   2.185541
    21  H    6.243641   3.496008   3.776286   4.331503   2.184715
    22  H    4.757197   2.859659   3.251444   3.868252   2.196537
                   11         12         13         14         15
    11  C    0.000000
    12  H    1.095960   0.000000
    13  H    1.095999   1.769092   0.000000
    14  H    1.095963   1.770404   1.768936   0.000000
    15  C    2.493947   2.748384   2.740774   3.465394   0.000000
    16  H    2.772887   2.574865   3.133050   3.782563   1.095786
    17  H    3.470094   3.781773   3.738883   4.341638   1.093945
    18  H    2.705533   3.044603   2.492367   3.725924   1.096216
    19  C    2.494504   3.465716   2.742328   2.748332   2.517280
    20  H    2.772020   3.781424   3.132871   2.573248   3.481029
    21  H    2.707988   3.728344   2.496163   3.046692   2.785642
    22  H    3.470439   4.341514   3.741174   3.781046   2.769527
                   16         17         18         19         20
    16  H    0.000000
    17  H    1.769197   0.000000
    18  H    1.768641   1.761057   0.000000
    19  C    3.480995   2.768227   2.787285   0.000000
    20  H    4.336699   3.778435   3.799447   1.095798   0.000000
    21  H    3.799062   3.128330   2.607070   1.096190   1.768747
    22  H    3.778310   2.570171   3.133546   1.094067   1.769203
                   21         22
    21  H    0.000000
    22  H    1.761546   0.000000
 Symmetry turned off by external request.
 Stoichiometry    C7H14O
 Framework group  C1[X(C7H14O)]
 Deg. of freedom    60
 Full point group                 C1      NOp   1
 Rotational constants (GHZ):      3.2830072      1.2652105      1.1603702
 Leave Link  202 at Tue Feb  7 16:36:07 2017, MaxMem=  1048576000 cpu:         0.0
 (Enter /mnt/data/applications/G09/g09/l9999.exe)
 1\1\GINC-KIMIK2127\FOpt\ONIOM(B3LYP/6-31G(d):External='./sictwo_files/
 sictwo_g09d01')\Mixed\C7H14O1\IFUNES\07-Feb-2017\0\\#p opt=nomicro oni
 om(B3LYP/6-31G*:external="./sictwo_files/sictwo_g09d01") geom=connecti
 vity nosymm scf(maxcyc=100)\\ONIOM(QM:MM) OPT FREQ with SICTWO V1.0\\0
 ,1\C,-2.4398163666,0.5589918695,0.029464385\O,-1.9872179618,1.67196077
 52,0.2007993257\C,-3.9433348561,0.3097013969,0.086691248\H,-4.29841681
 78,-0.1765432346,-0.8301517853\H,-4.1879233755,-0.3620080379,0.9193825
 606\H,-4.4639947031,1.2591895407,0.2243366984\C,-1.6138607969,-0.70624
 93509,-0.2552446408\H,-1.9243715492,-1.4607442694,0.483734611\H,-1.971
 0833097,-1.1026816765,-1.2183716574\C,-0.0780090921,-0.5915699655,-0.2
 747721878\C,0.5012196698,-1.991601373,-0.5666065031\H,0.1531170865,-2.
 370568067,-1.5342515811\H,1.5967211955,-1.9714385445,-0.5927694699\H,0
 .201139007,-2.7128486189,0.2020862201\C,0.3969315046,0.3627749086,-1.3
 825774581\H,-0.0019912279,0.0638950394,-2.3584251564\H,0.0876810407,1.
 3955789457,-1.1971175692\H,1.4905455146,0.3634920302,-1.4580543957\C,0
 .4622306273,-0.1237935073,1.0863671994\H,0.1133648114,-0.7764593449,1.
 894509558\H,1.5582605083,-0.137004645,1.0996266373\H,0.1503184409,0.89
 76858892,1.3235883913\\Version=EM64L-G09RevD.01\HF=0.0081723\RMSD=6.12
 3e-09\RMSF=1.546e-06\Dipole=-0.4308248,-1.0232669,-0.1544354\PG=C01 [X
 (C7H14O1)]\\@


 THE WISE MAN HAS THE POWER TO REASON AWAY
 WHAT A FOOL BELIEVES.
                     - DOOBIE BROTHERS
 Job cpu time:       0 days  0 hours 47 minutes 15.9 seconds.
 File lengths (MBytes):  RWF=      6 Int=      0 D2E=      0 Chk=      3 Scr=      1
 Normal termination of Gaussian 09 at Tue Feb  7 16:36:07 2017.
