 Entering Gaussian System, Link 0=g16
 Input=Os.garleek.in
 Output=Os.garleek.log
 Initial command:
 /opt/G16/g16/l1.exe "/home/jrodriguez/dev/garleek/tests/data/Os/Gau-13425.inp" -scrdir="/home/jrodriguez/dev/garleek/tests/data/Os/"
 Entering Link 1 = /opt/G16/g16/l1.exe PID=     13427.
  
 Copyright (c) 1988,1990,1992,1993,1995,1998,2003,2009,2016,
            Gaussian, Inc.  All Rights Reserved.
  
 This is part of the Gaussian(R) 16 program.  It is based on
 the Gaussian(R) 09 system (copyright 2009, Gaussian, Inc.),
 the Gaussian(R) 03 system (copyright 2003, Gaussian, Inc.),
 the Gaussian(R) 98 system (copyright 1998, Gaussian, Inc.),
 the Gaussian(R) 94 system (copyright 1995, Gaussian, Inc.),
 the Gaussian 92(TM) system (copyright 1992, Gaussian, Inc.),
 the Gaussian 90(TM) system (copyright 1990, Gaussian, Inc.),
 the Gaussian 88(TM) system (copyright 1988, Gaussian, Inc.),
 the Gaussian 86(TM) system (copyright 1986, Carnegie Mellon
 University), and the Gaussian 82(TM) system (copyright 1983,
 Carnegie Mellon University). Gaussian is a federally registered
 trademark of Gaussian, Inc.
  
 This software contains proprietary and confidential information,
 including trade secrets, belonging to Gaussian, Inc.
  
 This software is provided under written license and may be
 used, copied, transmitted, or stored only in accord with that
 written license.
  
 The following legend is applicable only to US Government
 contracts under FAR:
  
                    RESTRICTED RIGHTS LEGEND
  
 Use, reproduction and disclosure by the US Government is
 subject to restrictions as set forth in subparagraphs (a)
 and (c) of the Commercial Computer Software - Restricted
 Rights clause in FAR 52.227-19.
  
 Gaussian, Inc.
 340 Quinnipiac St., Bldg. 40, Wallingford CT 06492
  
  
 ---------------------------------------------------------------
 Warning -- This program may not be used in any manner that
 competes with the business of Gaussian, Inc. or will provide
 assistance to any competitor of Gaussian, Inc.  The licensee
 of this program is prohibited from giving any competitor of
 Gaussian, Inc. access to this program.  By using this program,
 the user acknowledges that Gaussian, Inc. is engaged in the
 business of creating and licensing software in the field of
 computational chemistry and represents and warrants to the
 licensee that it is not a competitor of Gaussian, Inc. and that
 it will not use this program in any manner prohibited above.
 ---------------------------------------------------------------
  

 Cite this work as:
 Gaussian 16, Revision A.03,
 M. J. Frisch, G. W. Trucks, H. B. Schlegel, G. E. Scuseria, 
 M. A. Robb, J. R. Cheeseman, G. Scalmani, V. Barone, 
 G. A. Petersson, H. Nakatsuji, X. Li, M. Caricato, A. V. Marenich, 
 J. Bloino, B. G. Janesko, R. Gomperts, B. Mennucci, H. P. Hratchian, 
 J. V. Ortiz, A. F. Izmaylov, J. L. Sonnenberg, D. Williams-Young, 
 F. Ding, F. Lipparini, F. Egidi, J. Goings, B. Peng, A. Petrone, 
 T. Henderson, D. Ranasinghe, V. G. Zakrzewski, J. Gao, N. Rega, 
 G. Zheng, W. Liang, M. Hada, M. Ehara, K. Toyota, R. Fukuda, 
 J. Hasegawa, M. Ishida, T. Nakajima, Y. Honda, O. Kitao, H. Nakai, 
 T. Vreven, K. Throssell, J. A. Montgomery, Jr., J. E. Peralta, 
 F. Ogliaro, M. J. Bearpark, J. J. Heyd, E. N. Brothers, K. N. Kudin, 
 V. N. Staroverov, T. A. Keith, R. Kobayashi, J. Normand, 
 K. Raghavachari, A. P. Rendell, J. C. Burant, S. S. Iyengar, 
 J. Tomasi, M. Cossi, J. M. Millam, M. Klene, C. Adamo, R. Cammi, 
 J. W. Ochterski, R. L. Martin, K. Morokuma, O. Farkas, 
 J. B. Foresman, and D. J. Fox, Gaussian, Inc., Wallingford CT, 2016.
 
 ******************************************
 Gaussian 16:  AM64L-G16RevA.03 25-Dec-2016
                 9-May-2018 
 ******************************************
 %nprocshared=6
 Will use up to    6 processors via shared memory.
 %mem=6000MB
 %chk=test
 ----------------------------------------------------------------------
 #p SP oniom(b3lyp/genecp:external="garleek-backend --qm gaussian --mm 
 tinker --ff 'Os.key'"/gen) geom=connectivity
 ----------------------------------------------------------------------
 1/38=1,52=2,57=2,172=1/1;
 2/12=2,17=6,18=5,40=1/2;
 1/38=1,52=2,53=3172/20;
 3/5=7,11=9,25=1,30=1,41=9900000,43=2/1;
 4/20=17,24=3,113=1,114=1/2;
 6/7=2,8=2,9=2,10=2/1;
 1/52=2,53=2032/20;
 3/5=7,11=2,16=1,17=8,25=1,30=1,74=-5/1,2,3;
 4//1;
 5/5=2,38=5/2;
 6/7=2,8=2,9=2,10=2,28=1/1;
 1/52=2,53=1022/20;
 3/5=7,11=9,25=1,30=1,41=9900000,43=2/1;
 4/20=17,24=3,113=1,114=2/2;
 6/7=2,8=2,9=2,10=2/1;
 1/52=2,53=3014/20;
 99/5=1,9=1/99;
 Leave Link    1 at Wed May  9 13:08:26 2018, MaxMem=   786432000 cpu:               0.3 elap:               0.1
 (Enter /opt/G16/g16/l101.exe)
 ----------------------------
 ONIOM(B3LYP:MM3) TS OPT FREQ
 ----------------------------
 Symbolic Z-matrix:
 Charge =  0 Multiplicity = 1 for low   level calculation on real  system.
 Charge =  0 Multiplicity = 1 for high  level calculation on model system.
 Charge =  0 Multiplicity = 1 for low   level calculation on model system.
 Os-196               0    -2.33777  -0.83263  -0.4489   H 
 O-6                  0    -0.94769  -0.16031  -1.22535  H 
 O-6                  0    -3.63675  -1.23515  -1.57651  H 
 O-6                  0    -1.84474  -2.51073  -0.21825  H 
 O-6                  0    -2.899    -0.40945   1.13021  H 
 N-8                  0    -3.17669   1.57199  -0.7979   H 
 C-2                  0    -4.05204  -3.27378  -1.86204  H 
 C-2                  0    -2.91848  -3.90197  -1.36783  H 
 H-5                  0    -2.05924  -4.05356  -2.01012  H 
 H-5                  0    -4.06571  -3.00883  -2.9141   H 
 C-1                  0    -2.70107   2.56876   0.19382  L    H-5      6     0.        0. 
 C-1                  0    -2.86628   1.97334  -2.17755  L    H-5      6     0.        0. 
 C-1                  0    -4.64194   1.47024  -0.67224  L    H-5      6     0.        0. 
 O-6                  0    -0.55335  -0.3768    4.80953  L 
 O-6                  0    -0.43725   2.9698   -0.62351  L 
 C-2                  0    -0.79625   3.28699   1.73975  L 
 C-2                  0    -0.57188   4.60379   1.60103  L 
 C-2                  0    -0.20196   5.34359   2.64741  L 
 C-2                  0    -0.19581   3.59309   3.97376  L 
 C-2                  0     0.03075   3.09605   5.19744  L 
 C-2                  0    -0.10004   1.7898    5.44524  L 
 C-2                  0    -0.47252   0.94716   4.4725   L 
 C-2                  0    -0.70946   1.44843   3.24526  L 
 C-2                  0    -0.57864   2.76487   2.97096  L 
 C-1                  0    -0.8001   -1.34787   3.791    L 
 N-37                 0    -0.02164   4.85326   3.81233  L 
 C-1                  0    -1.19054   2.4721    0.49466  L 
 C-1                  0    -3.17099   3.97354  -0.25668  L 
 C-1                  0    -4.26338   3.84572  -1.32832  L 
 C-1                  0    -5.31052   2.85544  -0.80099  L 
 N-37                 0     1.30634   1.75245   0.19711  L 
 C-1                  0    -3.6513    3.23782  -2.60607  L 
 C-1                  0    -2.77864   4.2288   -3.3987   L 
 C-1                  0    -2.31567   3.67156  -4.75238  L 
 C-2                  0     0.80068   2.41902  -0.77547  L 
 C-2                  0     1.40842   2.50705  -1.95886  L 
 N-37                 0     1.32248  -3.44259  -1.30725  L 
 N-8                  0     6.74372  -0.38115   0.27074  L 
 N-37                 0     2.41429   1.15488   0.05916  L 
 O-6                  0     2.51715  -3.08142   3.89747  L 
 O-6                  0     4.19233   0.48353  -1.1938   L 
 C-2                  0     3.25544  -1.67725  -0.60804  L 
 C-2                  0     2.85418  -1.83391  -1.87985  L 
 C-2                  0     1.90152  -2.71711  -2.18462  L 
 C-2                  0     1.67317  -3.30785  -0.08096  L 
 C-2                  0     1.04459  -4.06797   0.8263   L 
 C-2                  0     1.34488  -3.9789    2.12547  L 
 C-2                  0     2.29247  -3.13078   2.54855  L 
 C-2                  0     2.92139  -2.36496   1.63754  L 
 C-2                  0     2.6311   -2.43797   0.32088  L 
 C-1                  0     3.32078  -2.02643   4.43101  L 
 C-1                  0     4.31941  -0.61437  -0.27806  L 
 C-1                  0     7.93766  -1.19216   0.52647  L 
 C-1                  0     8.45169  -1.82124  -0.78791  L 
 C-1                  0     7.69055  -1.18247  -1.96218  L 
 C-1                  0     6.20561  -1.55488  -1.81412  L 
 C-1                  0     5.72871  -1.22664  -0.38053  L 
 C-1                  0     7.1325    0.77879  -0.53661  L 
 C-1                  0     7.85061   0.34762  -1.84062  L 
 C-1                  0     7.34303   1.11512  -3.07554  L 
 C-1                  0     7.67965   2.61243  -3.03236  L 
 C-2                  0     3.04817   1.21176  -1.0545   L 
 C-2                  0     2.57171   1.8835   -2.10291  L 
 H-5                  0    -0.68649   5.09884   0.62363  L 
 H-5                  0    -0.03392   6.42694   2.51966  L 
 H-5                  0     0.34436   3.77307   6.01077  L 
 H-5                  0     0.10815   1.40286   6.45768  L 
 H-5                  0    -1.00794   0.75196   2.45192  L 
 H-5                  0    -0.73467  -2.36189   4.23534  L 
 H-5                  0    -1.81979  -1.22651   3.37332  L 
 H-5                  0    -0.04317  -1.27909   2.98265  L 
 H-5                  0    -0.96378   1.40008   0.64698  L 
 H-5                  0    -3.21465   2.33715   1.15713  L 
 H-5                  0    -2.33147   4.569    -0.66964  L 
 H-5                  0    -3.55602   4.5427    0.61987  L 
 H-5                  0    -4.73131   4.83487  -1.54113  L 
 H-5                  0    -6.18709   2.80303  -1.48549  L 
 H-5                  0    -5.69363   3.19758   0.18715  L 
 H-5                  0    -4.91517   1.00826   0.30172  L 
 H-5                  0    -5.04281   0.79168  -1.45655  L 
 H-5                  0    -3.11034   1.13787  -2.87058  L 
 H-5                  0    -1.7767    2.13617  -2.28863  L 
 H-5                  0    -4.49444   2.9285   -3.27044  L 
 H-5                  0    -1.88531   4.52241  -2.80331  L 
 H-5                  0    -3.35899   5.16348  -3.57775  L 
 H-5                  0    -1.71592   4.42221  -5.31448  L 
 H-5                  0    -1.67934   2.76691  -4.63428  L 
 H-5                  0    -3.17903   3.39066  -5.39588  L 
 H-5                  0     0.94679   3.05245  -2.79828  L 
 H-5                  0     3.30091  -1.23851  -2.69269  L 
 H-5                  0     1.58432  -2.83865  -3.23474  L 
 H-5                  0     0.26155  -4.77307   0.49787  L 
 H-5                  0     0.80448  -4.60683   2.85467  L 
 H-5                  0     3.69391  -1.66761   1.98895  L 
 H-5                  0     3.32528  -2.10096   5.53759  L 
 H-5                  0     4.37021  -2.11142   4.08087  L 
 H-5                  0     2.90402  -1.03455   4.15753  L 
 H-5                  0     4.19481  -0.23557   0.75744  L 
 H-5                  0     7.70672  -1.98681   1.27016  L 
 H-5                  0     8.72856  -0.56053   0.98849  L 
 H-5                  0     8.28667  -2.92259  -0.78255  L 
 H-5                  0     9.54832  -1.66036  -0.89338  L 
 H-5                  0     8.09574  -1.548    -2.93437  L 
 H-5                  0     6.05856  -2.63917  -2.02184  L 
 H-5                  0     5.60842  -1.01206  -2.57558  L 
 H-5                  0     5.69035  -2.18384   0.1917   L 
 H-5                  0     7.80528   1.43473   0.05968  L 
 H-5                  0     6.24259   1.40032  -0.75797  L 
 H-5                  0     8.94138   0.56527  -1.73654  L 
 H-5                  0     6.24196   0.99418  -3.18281  L 
 H-5                  0     7.79914   0.67406  -3.99203  L 
 H-5                  0     7.32641   3.13258  -3.95096  L 
 H-5                  0     7.20396   3.121    -2.16506  L 
 H-5                  0     8.77687   2.78293  -2.95846  L 
 H-5                  0     3.10857   1.89498  -3.06561  L 
 H-5                  0    -2.95997  -4.51728  -0.47809  H 
 C-2                  0    -5.36071  -3.29924  -1.19268  H 
 C-2                  0    -6.52726  -3.10396  -1.95159  H 
 C-2                  0    -5.48835  -3.4996    0.19445  H 
 C-2                  0    -7.78478  -3.13041  -1.3512   H 
 H-5                  0    -6.44139  -2.93686  -3.02273  H 
 C-2                  0    -6.74487  -3.52035   0.79446  H 
 H-5                  0    -4.59916  -3.61858   0.80695  H 
 C-2                  0    -7.89822  -3.34057   0.02475  H 
 H-5                  0    -8.67561  -2.98553  -1.9566   H 
 H-5                  0    -6.82491  -3.67136   1.86759  H 
 H-5                  0    -8.8771   -3.35894   0.4961   H 
 
 ITRead=  0  0  0  0  0  0  0  0  0  0  0  0  0  0  0  0  0  0  0  0
 ITRead=  0  0  0  0  0  0  0  0  0  0  0  0  0  0  0  0  0  0  0  0
 ITRead=  0  0  0  0  0  0  0  0  0  0  0  0  0  0  0  0  0  0  0  0
 ITRead=  0  0  0  0  0  0  0  0  0  0  0  0  0  0  0  0  0  0  0  0
 ITRead=  0  0  0  0  0  0  0  0  0  0  0  0  0  0  0  0  0  0  0  0
 ITRead=  0  0  0  0  0  0  0  0  0  0  0  0  0  0  0  0  0  0  0  0
 ITRead=  0  0  0  0  0  0  0
 MicOpt= -1 -1 -1 -1 -1 -1 -1 -1 -1 -1 -1 -1 -1 -1 -1 -1 -1 -1 -1 -1
 MicOpt= -1 -1 -1 -1 -1 -1 -1 -1 -1 -1 -1 -1 -1 -1 -1 -1 -1 -1 -1 -1
 MicOpt= -1 -1 -1 -1 -1 -1 -1 -1 -1 -1 -1 -1 -1 -1 -1 -1 -1 -1 -1 -1
 MicOpt= -1 -1 -1 -1 -1 -1 -1 -1 -1 -1 -1 -1 -1 -1 -1 -1 -1 -1 -1 -1
 MicOpt= -1 -1 -1 -1 -1 -1 -1 -1 -1 -1 -1 -1 -1 -1 -1 -1 -1 -1 -1 -1
 MicOpt= -1 -1 -1 -1 -1 -1 -1 -1 -1 -1 -1 -1 -1 -1 -1 -1 -1 -1 -1 -1
 MicOpt= -1 -1 -1 -1 -1 -1 -1
 NAtoms=    127 NQM=      127 NQMF=       0 NMMI=      0 NMMIF=      0
                NMic=       0 NMicF=      0.
                    Isotopes and Nuclear Properties:
 (Nuclear quadrupole moments (NQMom) in fm**2, nuclear magnetic moments (NMagM)
  in nuclear magnetons)

  Atom         1           2           3           4           5           6           7           8           9          10
 IAtWgt=         190          16          16          16          16          14          12          12           1           1
 AtmWgt= 189.9586000  15.9949146  15.9949146  15.9949146  15.9949146  14.0030740  12.0000000  12.0000000   1.0078250   1.0078250
 NucSpn=           0           0           0           0           0           2           0           0           1           1
 AtZEff=  -0.0000000  -0.0000000  -0.0000000  -0.0000000  -0.0000000  -0.0000000  -0.0000000  -0.0000000  -0.0000000  -0.0000000
 NQMom=    0.0000000   0.0000000   0.0000000   0.0000000   0.0000000   2.0440000   0.0000000   0.0000000   0.0000000   0.0000000
 NMagM=    0.0000000   0.0000000   0.0000000   0.0000000   0.0000000   0.4037610   0.0000000   0.0000000   2.7928460   2.7928460
 AtZNuc=  76.0000000   8.0000000   8.0000000   8.0000000   8.0000000   7.0000000   6.0000000   6.0000000   1.0000000   1.0000000

  Atom        11          12          13          14          15          16          17          18          19          20
 IAtWgt=          12          12          12          16          16          12          12          12          12          12
 AtmWgt=  12.0000000  12.0000000  12.0000000  15.9949146  15.9949146  12.0000000  12.0000000  12.0000000  12.0000000  12.0000000
 NucSpn=           0           0           0           0           0           0           0           0           0           0
 AtZEff=  -0.0000000  -0.0000000  -0.0000000  -0.0000000  -0.0000000  -0.0000000  -0.0000000  -0.0000000  -0.0000000  -0.0000000
 NQMom=    0.0000000   0.0000000   0.0000000   0.0000000   0.0000000   0.0000000   0.0000000   0.0000000   0.0000000   0.0000000
 NMagM=    0.0000000   0.0000000   0.0000000   0.0000000   0.0000000   0.0000000   0.0000000   0.0000000   0.0000000   0.0000000
 AtZNuc=   6.0000000   6.0000000   6.0000000   8.0000000   8.0000000   6.0000000   6.0000000   6.0000000   6.0000000   6.0000000

  Atom        21          22          23          24          25          26          27          28          29          30
 IAtWgt=          12          12          12          12          12          14          12          12          12          12
 AtmWgt=  12.0000000  12.0000000  12.0000000  12.0000000  12.0000000  14.0030740  12.0000000  12.0000000  12.0000000  12.0000000
 NucSpn=           0           0           0           0           0           2           0           0           0           0
 AtZEff=  -0.0000000  -0.0000000  -0.0000000  -0.0000000  -0.0000000  -0.0000000  -0.0000000  -0.0000000  -0.0000000  -0.0000000
 NQMom=    0.0000000   0.0000000   0.0000000   0.0000000   0.0000000   2.0440000   0.0000000   0.0000000   0.0000000   0.0000000
 NMagM=    0.0000000   0.0000000   0.0000000   0.0000000   0.0000000   0.4037610   0.0000000   0.0000000   0.0000000   0.0000000
 AtZNuc=   6.0000000   6.0000000   6.0000000   6.0000000   6.0000000   7.0000000   6.0000000   6.0000000   6.0000000   6.0000000

  Atom        31          32          33          34          35          36          37          38          39          40
 IAtWgt=          14          12          12          12          12          12          14          14          14          16
 AtmWgt=  14.0030740  12.0000000  12.0000000  12.0000000  12.0000000  12.0000000  14.0030740  14.0030740  14.0030740  15.9949146
 NucSpn=           2           0           0           0           0           0           2           2           2           0
 AtZEff=  -0.0000000  -0.0000000  -0.0000000  -0.0000000  -0.0000000  -0.0000000  -0.0000000  -0.0000000  -0.0000000  -0.0000000
 NQMom=    2.0440000   0.0000000   0.0000000   0.0000000   0.0000000   0.0000000   2.0440000   2.0440000   2.0440000   0.0000000
 NMagM=    0.4037610   0.0000000   0.0000000   0.0000000   0.0000000   0.0000000   0.4037610   0.4037610   0.4037610   0.0000000
 AtZNuc=   7.0000000   6.0000000   6.0000000   6.0000000   6.0000000   6.0000000   7.0000000   7.0000000   7.0000000   8.0000000

  Atom        41          42          43          44          45          46          47          48          49          50
 IAtWgt=          16          12          12          12          12          12          12          12          12          12
 AtmWgt=  15.9949146  12.0000000  12.0000000  12.0000000  12.0000000  12.0000000  12.0000000  12.0000000  12.0000000  12.0000000
 NucSpn=           0           0           0           0           0           0           0           0           0           0
 AtZEff=  -0.0000000  -0.0000000  -0.0000000  -0.0000000  -0.0000000  -0.0000000  -0.0000000  -0.0000000  -0.0000000  -0.0000000
 NQMom=    0.0000000   0.0000000   0.0000000   0.0000000   0.0000000   0.0000000   0.0000000   0.0000000   0.0000000   0.0000000
 NMagM=    0.0000000   0.0000000   0.0000000   0.0000000   0.0000000   0.0000000   0.0000000   0.0000000   0.0000000   0.0000000
 AtZNuc=   8.0000000   6.0000000   6.0000000   6.0000000   6.0000000   6.0000000   6.0000000   6.0000000   6.0000000   6.0000000

  Atom        51          52          53          54          55          56          57          58          59          60
 IAtWgt=          12          12          12          12          12          12          12          12          12          12
 AtmWgt=  12.0000000  12.0000000  12.0000000  12.0000000  12.0000000  12.0000000  12.0000000  12.0000000  12.0000000  12.0000000
 NucSpn=           0           0           0           0           0           0           0           0           0           0
 AtZEff=  -0.0000000  -0.0000000  -0.0000000  -0.0000000  -0.0000000  -0.0000000  -0.0000000  -0.0000000  -0.0000000  -0.0000000
 NQMom=    0.0000000   0.0000000   0.0000000   0.0000000   0.0000000   0.0000000   0.0000000   0.0000000   0.0000000   0.0000000
 NMagM=    0.0000000   0.0000000   0.0000000   0.0000000   0.0000000   0.0000000   0.0000000   0.0000000   0.0000000   0.0000000
 AtZNuc=   6.0000000   6.0000000   6.0000000   6.0000000   6.0000000   6.0000000   6.0000000   6.0000000   6.0000000   6.0000000

  Atom        61          62          63          64          65          66          67          68          69          70
 IAtWgt=          12          12          12           1           1           1           1           1           1           1
 AtmWgt=  12.0000000  12.0000000  12.0000000   1.0078250   1.0078250   1.0078250   1.0078250   1.0078250   1.0078250   1.0078250
 NucSpn=           0           0           0           1           1           1           1           1           1           1
 AtZEff=  -0.0000000  -0.0000000  -0.0000000  -0.0000000  -0.0000000  -0.0000000  -0.0000000  -0.0000000  -0.0000000  -0.0000000
 NQMom=    0.0000000   0.0000000   0.0000000   0.0000000   0.0000000   0.0000000   0.0000000   0.0000000   0.0000000   0.0000000
 NMagM=    0.0000000   0.0000000   0.0000000   2.7928460   2.7928460   2.7928460   2.7928460   2.7928460   2.7928460   2.7928460
 AtZNuc=   6.0000000   6.0000000   6.0000000   1.0000000   1.0000000   1.0000000   1.0000000   1.0000000   1.0000000   1.0000000

  Atom        71          72          73          74          75          76          77          78          79          80
 IAtWgt=           1           1           1           1           1           1           1           1           1           1
 AtmWgt=   1.0078250   1.0078250   1.0078250   1.0078250   1.0078250   1.0078250   1.0078250   1.0078250   1.0078250   1.0078250
 NucSpn=           1           1           1           1           1           1           1           1           1           1
 AtZEff=  -0.0000000  -0.0000000  -0.0000000  -0.0000000  -0.0000000  -0.0000000  -0.0000000  -0.0000000  -0.0000000  -0.0000000
 NQMom=    0.0000000   0.0000000   0.0000000   0.0000000   0.0000000   0.0000000   0.0000000   0.0000000   0.0000000   0.0000000
 NMagM=    2.7928460   2.7928460   2.7928460   2.7928460   2.7928460   2.7928460   2.7928460   2.7928460   2.7928460   2.7928460
 AtZNuc=   1.0000000   1.0000000   1.0000000   1.0000000   1.0000000   1.0000000   1.0000000   1.0000000   1.0000000   1.0000000

  Atom        81          82          83          84          85          86          87          88          89          90
 IAtWgt=           1           1           1           1           1           1           1           1           1           1
 AtmWgt=   1.0078250   1.0078250   1.0078250   1.0078250   1.0078250   1.0078250   1.0078250   1.0078250   1.0078250   1.0078250
 NucSpn=           1           1           1           1           1           1           1           1           1           1
 AtZEff=  -0.0000000  -0.0000000  -0.0000000  -0.0000000  -0.0000000  -0.0000000  -0.0000000  -0.0000000  -0.0000000  -0.0000000
 NQMom=    0.0000000   0.0000000   0.0000000   0.0000000   0.0000000   0.0000000   0.0000000   0.0000000   0.0000000   0.0000000
 NMagM=    2.7928460   2.7928460   2.7928460   2.7928460   2.7928460   2.7928460   2.7928460   2.7928460   2.7928460   2.7928460
 AtZNuc=   1.0000000   1.0000000   1.0000000   1.0000000   1.0000000   1.0000000   1.0000000   1.0000000   1.0000000   1.0000000

  Atom        91          92          93          94          95          96          97          98          99         100
 IAtWgt=           1           1           1           1           1           1           1           1           1           1
 AtmWgt=   1.0078250   1.0078250   1.0078250   1.0078250   1.0078250   1.0078250   1.0078250   1.0078250   1.0078250   1.0078250
 NucSpn=           1           1           1           1           1           1           1           1           1           1
 AtZEff=  -0.0000000  -0.0000000  -0.0000000  -0.0000000  -0.0000000  -0.0000000  -0.0000000  -0.0000000  -0.0000000  -0.0000000
 NQMom=    0.0000000   0.0000000   0.0000000   0.0000000   0.0000000   0.0000000   0.0000000   0.0000000   0.0000000   0.0000000
 NMagM=    2.7928460   2.7928460   2.7928460   2.7928460   2.7928460   2.7928460   2.7928460   2.7928460   2.7928460   2.7928460
 AtZNuc=   1.0000000   1.0000000   1.0000000   1.0000000   1.0000000   1.0000000   1.0000000   1.0000000   1.0000000   1.0000000

  Atom       101         102         103         104         105         106         107         108         109         110
 IAtWgt=           1           1           1           1           1           1           1           1           1           1
 AtmWgt=   1.0078250   1.0078250   1.0078250   1.0078250   1.0078250   1.0078250   1.0078250   1.0078250   1.0078250   1.0078250
 NucSpn=           1           1           1           1           1           1           1           1           1           1
 AtZEff=  -0.0000000  -0.0000000  -0.0000000  -0.0000000  -0.0000000  -0.0000000  -0.0000000  -0.0000000  -0.0000000  -0.0000000
 NQMom=    0.0000000   0.0000000   0.0000000   0.0000000   0.0000000   0.0000000   0.0000000   0.0000000   0.0000000   0.0000000
 NMagM=    2.7928460   2.7928460   2.7928460   2.7928460   2.7928460   2.7928460   2.7928460   2.7928460   2.7928460   2.7928460
 AtZNuc=   1.0000000   1.0000000   1.0000000   1.0000000   1.0000000   1.0000000   1.0000000   1.0000000   1.0000000   1.0000000

  Atom       111         112         113         114         115         116         117         118         119         120
 IAtWgt=           1           1           1           1           1           1          12          12          12          12
 AtmWgt=   1.0078250   1.0078250   1.0078250   1.0078250   1.0078250   1.0078250  12.0000000  12.0000000  12.0000000  12.0000000
 NucSpn=           1           1           1           1           1           1           0           0           0           0
 AtZEff=  -0.0000000  -0.0000000  -0.0000000  -0.0000000  -0.0000000  -0.0000000  -0.0000000  -0.0000000  -0.0000000  -0.0000000
 NQMom=    0.0000000   0.0000000   0.0000000   0.0000000   0.0000000   0.0000000   0.0000000   0.0000000   0.0000000   0.0000000
 NMagM=    2.7928460   2.7928460   2.7928460   2.7928460   2.7928460   2.7928460   0.0000000   0.0000000   0.0000000   0.0000000
 AtZNuc=   1.0000000   1.0000000   1.0000000   1.0000000   1.0000000   1.0000000   6.0000000   6.0000000   6.0000000   6.0000000

  Atom       121         122         123         124         125         126         127
 IAtWgt=           1          12           1          12           1           1           1
 AtmWgt=   1.0078250  12.0000000   1.0078250  12.0000000   1.0078250   1.0078250   1.0078250
 NucSpn=           1           0           1           0           1           1           1
 AtZEff=  -0.0000000  -0.0000000  -0.0000000  -0.0000000  -0.0000000  -0.0000000  -0.0000000
 NQMom=    0.0000000   0.0000000   0.0000000   0.0000000   0.0000000   0.0000000   0.0000000
 NMagM=    2.7928460   0.0000000   2.7928460   0.0000000   2.7928460   2.7928460   2.7928460
 AtZNuc=   1.0000000   6.0000000   1.0000000   6.0000000   1.0000000   1.0000000   1.0000000
 Leave Link  101 at Wed May  9 13:08:26 2018, MaxMem=   786432000 cpu:               1.3 elap:               0.2
 (Enter /opt/G16/g16/l202.exe)
 Stoichiometry    C52H60N6O8Os
 Framework group  C1[X(C52H60N6O8Os)]
 Deg. of freedom   375
 Full point group                 C1      NOp   1
 Largest Abelian subgroup         C1      NOp   1
 Largest concise Abelian subgroup C1      NOp   1
                         Standard orientation:                         
 ---------------------------------------------------------------------
 Center     Atomic      Atomic             Coordinates (Angstroms)
 Number     Number       Type             X           Y           Z
 ---------------------------------------------------------------------
      1         76    90000001       -2.337766   -0.832632   -0.448897
      2          8    90000002       -0.947686   -0.160305   -1.225347
      3          8    90000002       -3.636745   -1.235149   -1.576510
      4          8    90000002       -1.844738   -2.510730   -0.218248
      5          8    90000002       -2.899003   -0.409449    1.130209
      6          7    90000003       -3.176691    1.571989   -0.797899
      7          6    90000004       -4.052045   -3.273776   -1.862041
      8          6    90000004       -2.918481   -3.901967   -1.367828
      9          1    90000005       -2.059238   -4.053565   -2.010118
     10          1    90000005       -4.065708   -3.008826   -2.914103
     11          6    90000006       -2.701072    2.568763    0.193819
     12          6    90000006       -2.866279    1.973335   -2.177545
     13          6    90000006       -4.641939    1.470243   -0.672235
     14          8    90000002       -0.553346   -0.376798    4.809530
     15          8    90000002       -0.437248    2.969799   -0.623514
     16          6    90000004       -0.796249    3.286986    1.739745
     17          6    90000004       -0.571878    4.603789    1.601029
     18          6    90000004       -0.201958    5.343590    2.647411
     19          6    90000004       -0.195805    3.593090    3.973757
     20          6    90000004        0.030751    3.096046    5.197436
     21          6    90000004       -0.100036    1.789801    5.445243
     22          6    90000004       -0.472523    0.947155    4.472499
     23          6    90000004       -0.709464    1.448433    3.245255
     24          6    90000004       -0.578639    2.764867    2.970956
     25          6    90000006       -0.800104   -1.347874    3.790998
     26          7    90000007       -0.021640    4.853259    3.812330
     27          6    90000006       -1.190538    2.472105    0.494664
     28          6    90000006       -3.170994    3.973537   -0.256675
     29          6    90000006       -4.263382    3.845724   -1.328324
     30          6    90000006       -5.310517    2.855442   -0.800987
     31          7    90000007        1.306336    1.752452    0.197108
     32          6    90000006       -3.651297    3.237825   -2.606071
     33          6    90000006       -2.778635    4.228798   -3.398700
     34          6    90000006       -2.315669    3.671559   -4.752381
     35          6    90000004        0.800682    2.419022   -0.775469
     36          6    90000004        1.408416    2.507045   -1.958864
     37          7    90000007        1.322478   -3.442587   -1.307247
     38          7    90000003        6.743721   -0.381151    0.270736
     39          7    90000007        2.414287    1.154882    0.059161
     40          8    90000002        2.517149   -3.081419    3.897474
     41          8    90000002        4.192329    0.483531   -1.193804
     42          6    90000004        3.255440   -1.677247   -0.608043
     43          6    90000004        2.854178   -1.833908   -1.879851
     44          6    90000004        1.901521   -2.717111   -2.184621
     45          6    90000004        1.673170   -3.307855   -0.080961
     46          6    90000004        1.044589   -4.067966    0.826304
     47          6    90000004        1.344879   -3.978898    2.125474
     48          6    90000004        2.292468   -3.130778    2.548553
     49          6    90000004        2.921387   -2.364961    1.637535
     50          6    90000004        2.631095   -2.437970    0.320875
     51          6    90000006        3.320783   -2.026431    4.431007
     52          6    90000006        4.319413   -0.614369   -0.278056
     53          6    90000006        7.937662   -1.192162    0.526467
     54          6    90000006        8.451694   -1.821236   -0.787906
     55          6    90000006        7.690554   -1.182465   -1.962184
     56          6    90000006        6.205615   -1.554884   -1.814121
     57          6    90000006        5.728705   -1.226641   -0.380525
     58          6    90000006        7.132496    0.778792   -0.536607
     59          6    90000006        7.850613    0.347619   -1.840616
     60          6    90000006        7.343030    1.115115   -3.075536
     61          6    90000006        7.679651    2.612428   -3.032358
     62          6    90000004        3.048169    1.211759   -1.054502
     63          6    90000004        2.571711    1.883501   -2.102909
     64          1    90000005       -0.686490    5.098838    0.623627
     65          1    90000005       -0.033920    6.426943    2.519657
     66          1    90000005        0.344357    3.773071    6.010774
     67          1    90000005        0.108150    1.402861    6.457680
     68          1    90000005       -1.007941    0.751955    2.451921
     69          1    90000005       -0.734669   -2.361892    4.235341
     70          1    90000005       -1.819790   -1.226511    3.373323
     71          1    90000005       -0.043170   -1.279088    2.982653
     72          1    90000005       -0.963783    1.400078    0.646982
     73          1    90000005       -3.214652    2.337152    1.157127
     74          1    90000005       -2.331473    4.568995   -0.669643
     75          1    90000005       -3.556020    4.542701    0.619866
     76          1    90000005       -4.731311    4.834874   -1.541133
     77          1    90000005       -6.187094    2.803032   -1.485487
     78          1    90000005       -5.693628    3.197577    0.187149
     79          1    90000005       -4.915172    1.008262    0.301718
     80          1    90000005       -5.042810    0.791682   -1.456553
     81          1    90000005       -3.110341    1.137867   -2.870584
     82          1    90000005       -1.776701    2.136165   -2.288625
     83          1    90000005       -4.494436    2.928503   -3.270441
     84          1    90000005       -1.885310    4.522413   -2.803314
     85          1    90000005       -3.358985    5.163482   -3.577746
     86          1    90000005       -1.715921    4.422209   -5.314484
     87          1    90000005       -1.679337    2.766905   -4.634284
     88          1    90000005       -3.179033    3.390661   -5.395880
     89          1    90000005        0.946787    3.052453   -2.798283
     90          1    90000005        3.300907   -1.238505   -2.692693
     91          1    90000005        1.584323   -2.838645   -3.234741
     92          1    90000005        0.261550   -4.773071    0.497870
     93          1    90000005        0.804478   -4.606825    2.854671
     94          1    90000005        3.693912   -1.667609    1.988954
     95          1    90000005        3.325284   -2.100958    5.537592
     96          1    90000005        4.370213   -2.111420    4.080867
     97          1    90000005        2.904017   -1.034546    4.157530
     98          1    90000005        4.194807   -0.235566    0.757443
     99          1    90000005        7.706724   -1.986813    1.270155
    100          1    90000005        8.728557   -0.560529    0.988485
    101          1    90000005        8.286666   -2.922594   -0.782552
    102          1    90000005        9.548317   -1.660362   -0.893383
    103          1    90000005        8.095741   -1.547998   -2.934372
    104          1    90000005        6.058564   -2.639169   -2.021838
    105          1    90000005        5.608421   -1.012063   -2.575580
    106          1    90000005        5.690346   -2.183839    0.191698
    107          1    90000005        7.805283    1.434731    0.059680
    108          1    90000005        6.242586    1.400315   -0.757967
    109          1    90000005        8.941381    0.565265   -1.736537
    110          1    90000005        6.241961    0.994178   -3.182811
    111          1    90000005        7.799137    0.674059   -3.992025
    112          1    90000005        7.326406    3.132577   -3.950961
    113          1    90000005        7.203956    3.121004   -2.165064
    114          1    90000005        8.776869    2.782933   -2.958461
    115          1    90000005        3.108568    1.894977   -3.065614
    116          1    90000005       -2.959974   -4.517279   -0.478088
    117          6    90000004       -5.360705   -3.299236   -1.192680
    118          6    90000004       -6.527262   -3.103963   -1.951586
    119          6    90000004       -5.488349   -3.499603    0.194449
    120          6    90000004       -7.784783   -3.130406   -1.351202
    121          1    90000005       -6.441387   -2.936864   -3.022727
    122          6    90000004       -6.744871   -3.520345    0.794460
    123          1    90000005       -4.599160   -3.618579    0.806950
    124          6    90000004       -7.898218   -3.340566    0.024745
    125          1    90000005       -8.675608   -2.985530   -1.956595
    126          1    90000005       -6.824911   -3.671356    1.867587
    127          1    90000005       -8.877104   -3.358943    0.496101
 ---------------------------------------------------------------------
 Rotational constants (GHZ):           0.0439819           0.0237619           0.0219953
 Leave Link  202 at Wed May  9 13:08:26 2018, MaxMem=   786432000 cpu:               0.0 elap:               0.0
 (Enter /opt/G16/g16/l120.exe)
 ONIOM: Cut between C /H    11 and N     6 factor= 0.700189 0.700189
 ONIOM: Cut between C /H    12 and N     6 factor= 0.700189 0.700189
 ONIOM: Cut between C /H    13 and N     6 factor= 0.700189 0.700189
 ONIOM: saving gridpoint 17
 ONIOM: generating point  3 -- low level on real system.
 Leave Link  120 at Wed May  9 13:08:26 2018, MaxMem=   786432000 cpu:               0.0 elap:               0.0
 (Enter /opt/G16/g16/l301.exe)
 General basis read from cards:  (5D, 7F)
 Centers:       1
 LanL2DZ
 ****
 Centers:       2      3      4      5     14     15     40     41
 6-31G*
 ****
 Centers:       7      8     11     12     13     16     17     18     19     20
 Centers:      21     22     23     24     25     27     28     29     30     32
 Centers:      33     34     35     36     42     43     44     45     46     47
 Centers:      48     49     50     51     52     53     54     55     56     57
 Centers:      58     59     60     61     62     63    117    118    119    120
 Centers:     122    124      9     10     64     65     66     67     68     69
 Centers:      70     71     72     73     74     75     76     77     78     79
 Centers:      80     81     82     83     84     85     86     87     88     89
 Centers:      90     91     92     93     94     95     96     97     98     99
 Centers:     100    101    102    103    104    105    106    107    108    109
 Centers:     110    111    112    113    114    115    116    121    123    125
 Centers:     126    127      6     26     31     37     38     39
 6-31G
 ****
 Ernie: Thresh=  0.10000D-02 Tol=  0.10000D-05 Strict=F.
 Ernie:  1 primitive shells out of 925 were deleted.
 There are   786 symmetry adapted cartesian basis functions of A   symmetry.
 There are   776 symmetry adapted basis functions of A   symmetry.
   776 basis functions,  1783 primitive gaussians,   786 cartesian basis functions
   277 alpha electrons      277 beta electrons
       nuclear repulsion energy     14821.4079845507 Hartrees.



 Warning!  Os atom    1 has 76 valence electrons but only  22 basis functions.
 This is less than a minimal basis set!



 IExCor=    0 DFT=F Ex=HF Corr=None ExCW=0 ScaHFX=  1.000000
 ScaDFX=  1.000000  1.000000  1.000000  1.000000 ScalE2=  1.000000  1.000000
 IRadAn=      5 IRanWt=     -1 IRanGd=            0 ICorTp=0 IEmpDi=  4
 NAtoms=  127 NActive=  127 NUniq=  127 SFac= 1.00D+00 NAtFMM=   60 NAOKFM=T Big=T
 Integral buffers will be    131072 words long.
 Raffenetti 1 integral format.
 Two-electron integral symmetry is turned on.
 Leave Link  301 at Wed May  9 13:08:26 2018, MaxMem=   786432000 cpu:               0.2 elap:               0.0
 (Enter /opt/G16/g16/l402.exe)
 External calculation of energy.
 Running external command "garleek-backend --qm gaussian --mm tinker --ff 'Os.key' R"
         input file       "/home/jrodriguez/dev/garleek/tests/data/Os/Gau-13427.EIn"
         output file      "/home/jrodriguez/dev/garleek/tests/data/Os/Gau-13427.EOu"
         message file     "/home/jrodriguez/dev/garleek/tests/data/Os/Gau-13427.EMs"
         fchk file        "/home/jrodriguez/dev/garleek/tests/data/Os/Gau-13427.EFC"
         mat. el file     "/home/jrodriguez/dev/garleek/tests/data/Os/Gau-13427.EUF"
==============================================
Entering Garleek v0+untagged.60.gdbe7248.dirty
==============================================
Running TINKER: /home/jrodriguez/.local/anaconda/envs/garleek/bin/analyze /scratch/tmpj2m_x05t.xyz -k /home/jrodriguez/dev/garleek/tests/data/Os/Os.key E,M
==============================================
               Exiting Garleek                
==============================================
 Recovered energy=  6.32587441229     dipole=      0.341890936783      0.272253772444     -1.782632721017
 Energy=     6.32587441     NIter=   0.
 Dipole moment=       0.341891       0.272254      -1.782633
 Leave Link  402 at Wed May  9 13:08:27 2018, MaxMem=   786432000 cpu:               3.9 elap:               0.8
 (Enter /opt/G16/g16/l601.exe)
 Hyperfine terms turned off by default for NAtoms > 100.
 Leave Link  601 at Wed May  9 13:08:27 2018, MaxMem=   786432000 cpu:               0.1 elap:               0.0
 (Enter /opt/G16/g16/l120.exe)
 SvSCFP did not find density file   528.
 ONIOM: saving gridpoint  3
 ONIOM: restoring gridpoint 17
 ONIOM: generating point  2 -- high level on model system.
 Leave Link  120 at Wed May  9 13:08:27 2018, MaxMem=   786432000 cpu:               0.0 elap:               0.0
 (Enter /opt/G16/g16/l301.exe)
 General basis read from cards:  (5D, 7F)
 Centers:       1
 LanL2DZ
 ****
 Centers:       2      3      4      5     14     15     40     41
 6-31G*
 ****
 Centers:       7      8     16     17     18     19     20     21     22     23
 Centers:      24     25     27     28     29     30     32     33     34     35
 Centers:      36     42     43     44     45     46     47     48     49     50
 Centers:      51     52     53     54     55     56     57     58     59     60
 Centers:      61     62     63    117    118    119    120    122    124      9
 Centers:      10     11     12     13     64     65     66     67     68     69
 Centers:      70     71     72     73     74     75     76     77     78     79
 Centers:      80     81     82     83     84     85     86     87     88     89
 Centers:      90     91     92     93     94     95     96     97     98     99
 Centers:     100    101    102    103    104    105    106    107    108    109
 Centers:     110    111    112    113    114    115    116    121    123    125
 Centers:     126    127      6     26     31     37     38     39
 6-31G
 ****
 ======================================================================================================
                                       Pseudopotential Parameters
 ======================================================================================================
  Center     Atomic      Valence      Angular      Power
  Number     Number     Electrons     Momentum     of R      Exponent        Coefficient   SO-Coeffient
 ======================================================================================================
    1         76           16
                                      G and up 
                                                     1      848.8743292       -0.15372930    0.00000000
                                                     2      400.4640004    -1642.96955420    0.00000000
                                                     2       58.0359466     -336.79545670    0.00000000
                                                     2       12.0454682      -94.98390270    0.00000000
                                                     2        3.4442512      -10.35162180    0.00000000
                                      S - G
                                                     0      216.2672249        3.15372930    0.00000000
                                                     1      343.8582098       25.99482330    0.00000000
                                                     2      136.0523606      859.48657560    0.00000000
                                                     2       35.0389457      380.13765040    0.00000000
                                                     2        4.4724452      242.70106660    0.00000000
                                                     2        3.7675119     -125.17531070    0.00000000
                                      P - G
                                                     0      326.0600134        2.15372930    0.00000000
                                                     1       95.6330206       62.86842750    0.00000000
                                                     2       32.5261043      293.13229870    0.00000000
                                                     2        3.7699730      264.46483880    0.00000000
                                                     2        3.3895859     -172.64203140    0.00000000
                                      D - G
                                                     0      131.0319929        3.15372930    0.00000000
                                                     1       89.2464903       45.33992000    0.00000000
                                                     2       46.3976980      335.85750320    0.00000000
                                                     2       14.1866053      166.30374570    0.00000000
                                                     2        3.7668843       49.02378250    0.00000000
                                      F - G
                                                     0      134.7368148        3.95579820    0.00000000
                                                     1       73.8771318       51.95219570    0.00000000
                                                     2       38.1030425      314.25558660    0.00000000
                                                     2       10.5337695      147.18398940    0.00000000
                                                     2        2.3338246       13.96229470    0.00000000
    2          8
                                   No pseudopotential on this center.
    3          8
                                   No pseudopotential on this center.
    4          8
                                   No pseudopotential on this center.
    5          8
                                   No pseudopotential on this center.
    6          7
                                   No pseudopotential on this center.
    7          6
                                   No pseudopotential on this center.
    8          6
                                   No pseudopotential on this center.
    9          1
                                   No pseudopotential on this center.
   10          1
                                   No pseudopotential on this center.
   11          1
                                   No pseudopotential on this center.
   12          1
                                   No pseudopotential on this center.
   13          1
                                   No pseudopotential on this center.
   14          8
                                   No pseudopotential on this center.
   15          8
                                   No pseudopotential on this center.
   16          6
                                   No pseudopotential on this center.
   17          6
                                   No pseudopotential on this center.
   18          6
                                   No pseudopotential on this center.
   19          6
                                   No pseudopotential on this center.
   20          6
                                   No pseudopotential on this center.
   21          6
                                   No pseudopotential on this center.
   22          6
                                   No pseudopotential on this center.
   23          6
                                   No pseudopotential on this center.
   24          6
                                   No pseudopotential on this center.
   25          6
                                   No pseudopotential on this center.
   26          7
                                   No pseudopotential on this center.
   27          6
                                   No pseudopotential on this center.
   28          6
                                   No pseudopotential on this center.
   29          6
                                   No pseudopotential on this center.
   30          6
                                   No pseudopotential on this center.
   31          7
                                   No pseudopotential on this center.
   32          6
                                   No pseudopotential on this center.
   33          6
                                   No pseudopotential on this center.
   34          6
                                   No pseudopotential on this center.
   35          6
                                   No pseudopotential on this center.
   36          6
                                   No pseudopotential on this center.
   37          7
                                   No pseudopotential on this center.
   38          7
                                   No pseudopotential on this center.
   39          7
                                   No pseudopotential on this center.
   40          8
                                   No pseudopotential on this center.
   41          8
                                   No pseudopotential on this center.
   42          6
                                   No pseudopotential on this center.
   43          6
                                   No pseudopotential on this center.
   44          6
                                   No pseudopotential on this center.
   45          6
                                   No pseudopotential on this center.
   46          6
                                   No pseudopotential on this center.
   47          6
                                   No pseudopotential on this center.
   48          6
                                   No pseudopotential on this center.
   49          6
                                   No pseudopotential on this center.
   50          6
                                   No pseudopotential on this center.
   51          6
                                   No pseudopotential on this center.
   52          6
                                   No pseudopotential on this center.
   53          6
                                   No pseudopotential on this center.
   54          6
                                   No pseudopotential on this center.
   55          6
                                   No pseudopotential on this center.
   56          6
                                   No pseudopotential on this center.
   57          6
                                   No pseudopotential on this center.
   58          6
                                   No pseudopotential on this center.
   59          6
                                   No pseudopotential on this center.
   60          6
                                   No pseudopotential on this center.
   61          6
                                   No pseudopotential on this center.
   62          6
                                   No pseudopotential on this center.
   63          6
                                   No pseudopotential on this center.
   64          1
                                   No pseudopotential on this center.
   65          1
                                   No pseudopotential on this center.
   66          1
                                   No pseudopotential on this center.
   67          1
                                   No pseudopotential on this center.
   68          1
                                   No pseudopotential on this center.
   69          1
                                   No pseudopotential on this center.
   70          1
                                   No pseudopotential on this center.
   71          1
                                   No pseudopotential on this center.
   72          1
                                   No pseudopotential on this center.
   73          1
                                   No pseudopotential on this center.
   74          1
                                   No pseudopotential on this center.
   75          1
                                   No pseudopotential on this center.
   76          1
                                   No pseudopotential on this center.
   77          1
                                   No pseudopotential on this center.
   78          1
                                   No pseudopotential on this center.
   79          1
                                   No pseudopotential on this center.
   80          1
                                   No pseudopotential on this center.
   81          1
                                   No pseudopotential on this center.
   82          1
                                   No pseudopotential on this center.
   83          1
                                   No pseudopotential on this center.
   84          1
                                   No pseudopotential on this center.
   85          1
                                   No pseudopotential on this center.
   86          1
                                   No pseudopotential on this center.
   87          1
                                   No pseudopotential on this center.
   88          1
                                   No pseudopotential on this center.
   89          1
                                   No pseudopotential on this center.
   90          1
                                   No pseudopotential on this center.
   91          1
                                   No pseudopotential on this center.
   92          1
                                   No pseudopotential on this center.
   93          1
                                   No pseudopotential on this center.
   94          1
                                   No pseudopotential on this center.
   95          1
                                   No pseudopotential on this center.
   96          1
                                   No pseudopotential on this center.
   97          1
                                   No pseudopotential on this center.
   98          1
                                   No pseudopotential on this center.
   99          1
                                   No pseudopotential on this center.
  100          1
                                   No pseudopotential on this center.
  101          1
                                   No pseudopotential on this center.
  102          1
                                   No pseudopotential on this center.
  103          1
                                   No pseudopotential on this center.
  104          1
                                   No pseudopotential on this center.
  105          1
                                   No pseudopotential on this center.
  106          1
                                   No pseudopotential on this center.
  107          1
                                   No pseudopotential on this center.
  108          1
                                   No pseudopotential on this center.
  109          1
                                   No pseudopotential on this center.
  110          1
                                   No pseudopotential on this center.
  111          1
                                   No pseudopotential on this center.
  112          1
                                   No pseudopotential on this center.
  113          1
                                   No pseudopotential on this center.
  114          1
                                   No pseudopotential on this center.
  115          1
                                   No pseudopotential on this center.
  116          1
                                   No pseudopotential on this center.
  117          6
                                   No pseudopotential on this center.
  118          6
                                   No pseudopotential on this center.
  119          6
                                   No pseudopotential on this center.
  120          6
                                   No pseudopotential on this center.
  121          1
                                   No pseudopotential on this center.
  122          6
                                   No pseudopotential on this center.
  123          1
                                   No pseudopotential on this center.
  124          6
                                   No pseudopotential on this center.
  125          1
                                   No pseudopotential on this center.
  126          1
                                   No pseudopotential on this center.
  127          1
                                   No pseudopotential on this center.
 ======================================================================================================
 Ernie: Thresh=  0.10000D-02 Tol=  0.10000D-05 Strict=F.
 Ernie:  1 primitive shells out of 195 were deleted.
 There are   187 symmetry adapted cartesian basis functions of A   symmetry.
 There are   181 symmetry adapted basis functions of A   symmetry.
   181 basis functions,   397 primitive gaussians,   187 cartesian basis functions
    57 alpha electrons       57 beta electrons
       nuclear repulsion energy      1020.7063816416 Hartrees.
 IExCor=  402 DFT=T Ex+Corr=B3LYP ExCW=0 ScaHFX=  0.200000
 ScaDFX=  0.800000  0.720000  1.000000  0.810000 ScalE2=  1.000000  1.000000
 IRadAn=      5 IRanWt=     -1 IRanGd=            0 ICorTp=0 IEmpDi=  4
 NAtoms=  127 NActive=   25 NUniq=   25 SFac= 1.00D+00 NAtFMM=   60 NAOKFM=F Big=F
 Integral buffers will be    131072 words long.
 Raffenetti 2 integral format.
 Two-electron integral symmetry is turned on.
 Leave Link  301 at Wed May  9 13:08:27 2018, MaxMem=   786432000 cpu:               0.2 elap:               0.0
 (Enter /opt/G16/g16/l302.exe)
 NPDir=0 NMtPBC=     1 NCelOv=     1 NCel=       1 NClECP=     1 NCelD=      1
         NCelK=      1 NCelE2=     1 NClLst=     1 CellRange=     0.0.
 One-electron integrals computed using PRISM.
 One-electron integral symmetry used in STVInt
   1 Symmetry operations used in ECPInt.
 ECPInt:  NShTT=    2701 NPrTT=   19193 LenC2=    2517 LenP2D=   10884.
 LDataN:  DoStor=T MaxTD1= 6 Len=  172
 NBasis=   181 RedAO= T EigKep=  6.29D-04  NBF=   181
 NBsUse=   181 1.00D-06 EigRej= -1.00D+00 NBFU=   181
 Precomputing XC quadrature grid using
 IXCGrd= 4 IRadAn=           5 IRanWt=          -1 IRanGd=           0 AccXCQ= 0.00D+00.
 Defaulting to unpruned grid for atomic number  76.
 Generated NRdTot=       0 NPtTot=           0 NUsed=           0 NTot=          32
 NSgBfM=   186   186   186   186   186 MxSgAt=    25 MxSgA2=    25.
 Leave Link  302 at Wed May  9 13:08:28 2018, MaxMem=   786432000 cpu:               4.1 elap:               0.7
 (Enter /opt/G16/g16/l303.exe)
 DipDrv:  MaxL=1.
 Leave Link  303 at Wed May  9 13:08:28 2018, MaxMem=   786432000 cpu:               0.2 elap:               0.0
 (Enter /opt/G16/g16/l401.exe)
 ExpMin= 2.90D-02 ExpMax= 5.48D+03 ExpMxC= 8.25D+02 IAcc=3 IRadAn=         5 AccDes= 0.00D+00
 Harris functional with IExCor=  402 and IRadAn=       5 diagonalized for initial guess.
 HarFok:  IExCor=  402 AccDes= 0.00D+00 IRadAn=         5 IDoV= 1 UseB2=F ITyADJ=14
 ICtDFT=  3500011 ScaDFX=  1.000000  1.000000  1.000000  1.000000
 Defaulting to unpruned grid for atomic number  76.
 FoFCou: FMM=F IPFlag=           0 FMFlag=      100000 FMFlg1=           0
         NFxFlg=           0 DoJE=T BraDBF=F KetDBF=T FulRan=T
         wScrn=  0.000000 ICntrl=       500 IOpCl=  0 I1Cent=   200000004 NGrid=           0
         NMat0=    1 NMatS0=      1 NMatT0=    0 NMatD0=    1 NMtDS0=    0 NMtDT0=    0
 Petite list used in FoFCou.
 Harris En= -758.502640025301    
 JPrj=0 DoOrth=F DoCkMO=F.
 Leave Link  401 at Wed May  9 13:08:31 2018, MaxMem=   786432000 cpu:              21.5 elap:               3.6
 (Enter /opt/G16/g16/l502.exe)
 Keep R1 ints in memory in canonical form, NReq=141772127.
 FoFCou: FMM=F IPFlag=           0 FMFlag=           0 FMFlg1=           0
         NFxFlg=           0 DoJE=F BraDBF=F KetDBF=F FulRan=T
         wScrn=  0.000000 ICntrl=       600 IOpCl=  0 I1Cent=           0 NGrid=           0
         NMat0=    1 NMatS0=  16471 NMatT0=    0 NMatD0=    1 NMtDS0=    0 NMtDT0=    0
 Symmetry not used in FoFCou.
 Two-electron integral symmetry not used.
 Closed shell SCF:
 Using DIIS extrapolation, IDIIS=  1040.
 NGot=   786432000 LenX=   650700299 LenY=   650664889
 Requested convergence on RMS density matrix=1.00D-08 within 128 cycles.
 Requested convergence on MAX density matrix=1.00D-06.
 Requested convergence on             energy=1.00D-06.
 No special actions if energy rises.

 Cycle   1  Pass 1  IDiag  1:
 Defaulting to unpruned grid for atomic number  76.
 Defaulting to unpruned grid for atomic number  76.
 Defaulting to unpruned grid for atomic number  76.
 Defaulting to unpruned grid for atomic number  76.
 Defaulting to unpruned grid for atomic number  76.
 Defaulting to unpruned grid for atomic number  76.
 E= -755.936781551981    
 DIIS: error= 8.86D-02 at cycle   1 NSaved=   1.
 NSaved= 1 IEnMin= 1 EnMin= -755.936781551981     IErMin= 1 ErrMin= 8.86D-02
 ErrMax= 8.86D-02  0.00D+00 EMaxC= 1.00D-01 BMatC= 2.12D+00 BMatP= 2.12D+00
 IDIUse=3 WtCom= 1.14D-01 WtEn= 8.86D-01
 Coeff-Com:  0.100D+01
 Coeff-En:   0.100D+01
 Coeff:      0.100D+01
 Gap=     0.207 Goal=   None    Shift=    0.000
 GapD=    0.207 DampG=1.000 DampE=0.250 DampFc=0.2500 IDamp=-1.
 Damping current iteration by 2.50D-01
 RMSDP=2.05D-02 MaxDP=1.03D+00              OVMax= 8.16D-01

 Cycle   2  Pass 1  IDiag  1:
 E= -756.743654224637     Delta-E=       -0.806872672656 Rises=F Damp=T
 DIIS: error= 2.78D-02 at cycle   2 NSaved=   2.
 NSaved= 2 IEnMin= 2 EnMin= -756.743654224637     IErMin= 2 ErrMin= 2.78D-02
 ErrMax= 2.78D-02  0.00D+00 EMaxC= 1.00D-01 BMatC= 2.07D-01 BMatP= 2.12D+00
 IDIUse=3 WtCom= 7.22D-01 WtEn= 2.78D-01
 Coeff-Com: -0.265D+00 0.127D+01
 Coeff-En:   0.151D+00 0.849D+00
 Coeff:     -0.150D+00 0.115D+01
 Gap=     0.077 Goal=   None    Shift=    0.000
 RMSDP=1.26D-02 MaxDP=3.42D-01 DE=-8.07D-01 OVMax= 9.95D-01

 Cycle   3  Pass 1  IDiag  1:
 E= -750.511144748496     Delta-E=        6.232509476141 Rises=F Damp=F
 DIIS: error= 1.42D-01 at cycle   3 NSaved=   3.
 NSaved= 3 IEnMin= 2 EnMin= -756.743654224637     IErMin= 2 ErrMin= 2.78D-02
 ErrMax= 1.42D-01  0.00D+00 EMaxC= 1.00D-01 BMatC= 3.64D+00 BMatP= 2.07D-01
 IDIUse=2 WtCom= 0.00D+00 WtEn= 1.00D+00
 EnCoef did     2 forward-backward iterations
 Coeff-En:   0.961D-01 0.792D+00 0.112D+00
 Coeff:      0.961D-01 0.792D+00 0.112D+00
 Gap=     0.056 Goal=   None    Shift=    0.000
 RMSDP=1.28D-02 MaxDP=2.86D-01 DE= 6.23D+00 OVMax= 7.83D-01

 Cycle   4  Pass 1  IDiag  1:
 E= -756.576127687981     Delta-E=       -6.064982939484 Rises=F Damp=F
 DIIS: error= 8.43D-02 at cycle   4 NSaved=   4.
 NSaved= 4 IEnMin= 2 EnMin= -756.743654224637     IErMin= 2 ErrMin= 2.78D-02
 ErrMax= 8.43D-02  0.00D+00 EMaxC= 1.00D-01 BMatC= 1.73D+00 BMatP= 2.07D-01
 IDIUse=2 WtCom= 0.00D+00 WtEn= 1.00D+00
 EnCoef did   100 forward-backward iterations
 Coeff-En:   0.434D+00 0.942D-02 0.406D-04 0.557D+00
 Coeff:      0.434D+00 0.942D-02 0.406D-04 0.557D+00
 Gap=     0.120 Goal=   None    Shift=    0.000
 RMSDP=8.18D-03 MaxDP=2.40D-01 DE=-6.06D+00 OVMax= 5.13D-01

 Cycle   5  Pass 1  IDiag  1:
 E= -756.420595001722     Delta-E=        0.155532686259 Rises=F Damp=F
 DIIS: error= 1.18D-01 at cycle   5 NSaved=   5.
 NSaved= 5 IEnMin= 2 EnMin= -756.743654224637     IErMin= 2 ErrMin= 2.78D-02
 ErrMax= 1.18D-01  0.00D+00 EMaxC= 1.00D-01 BMatC= 1.82D+00 BMatP= 2.07D-01
 IDIUse=2 WtCom= 0.00D+00 WtEn= 1.00D+00
 EnCoef did   100 forward-backward iterations
 Coeff-En:   0.330D+00 0.324D-02 0.140D-04 0.455D+00 0.211D+00
 Coeff:      0.330D+00 0.324D-02 0.140D-04 0.455D+00 0.211D+00
 Gap=     0.176 Goal=   None    Shift=    0.000
 RMSDP=5.96D-03 MaxDP=2.18D-01 DE= 1.56D-01 OVMax= 3.36D-01

 Cycle   6  Pass 1  IDiag  1:
 E= -757.927848019566     Delta-E=       -1.507253017844 Rises=F Damp=F
 DIIS: error= 2.27D-02 at cycle   6 NSaved=   6.
 NSaved= 6 IEnMin= 6 EnMin= -757.927848019566     IErMin= 6 ErrMin= 2.27D-02
 ErrMax= 2.27D-02  0.00D+00 EMaxC= 1.00D-01 BMatC= 1.31D-01 BMatP= 2.07D-01
 IDIUse=3 WtCom= 7.73D-01 WtEn= 2.27D-01
 EnCoef did     2 forward-backward iterations
 Coeff-Com: -0.363D-01 0.256D+00 0.252D-01 0.122D+00 0.107D+00 0.526D+00
 Coeff-En:   0.000D+00 0.000D+00 0.000D+00 0.760D-01 0.688D-01 0.855D+00
 Coeff:     -0.280D-01 0.198D+00 0.195D-01 0.111D+00 0.985D-01 0.601D+00
 Gap=     0.117 Goal=   None    Shift=    0.000
 RMSDP=2.64D-03 MaxDP=1.01D-01 DE=-1.51D+00 OVMax= 1.40D-01

 Cycle   7  Pass 1  IDiag  1:
 E= -757.916205558138     Delta-E=        0.011642461428 Rises=F Damp=F
 DIIS: error= 3.43D-02 at cycle   7 NSaved=   7.
 NSaved= 7 IEnMin= 6 EnMin= -757.927848019566     IErMin= 6 ErrMin= 2.27D-02
 ErrMax= 3.43D-02  0.00D+00 EMaxC= 1.00D-01 BMatC= 1.56D-01 BMatP= 1.31D-01
 IDIUse=2 WtCom= 0.00D+00 WtEn= 1.00D+00
 Coeff-En:   0.000D+00 0.000D+00 0.000D+00 0.000D+00 0.000D+00 0.518D+00
 Coeff-En:   0.482D+00
 Coeff:      0.000D+00 0.000D+00 0.000D+00 0.000D+00 0.000D+00 0.518D+00
 Coeff:      0.482D+00
 Gap=     0.103 Goal=   None    Shift=    0.000
 RMSDP=3.30D-03 MaxDP=1.19D-01 DE= 1.16D-02 OVMax= 2.04D-01

 Cycle   8  Pass 1  IDiag  1:
 E= -757.705753890573     Delta-E=        0.210451667565 Rises=F Damp=F
 DIIS: error= 4.39D-02 at cycle   8 NSaved=   8.
 NSaved= 8 IEnMin= 6 EnMin= -757.927848019566     IErMin= 6 ErrMin= 2.27D-02
 ErrMax= 4.39D-02  0.00D+00 EMaxC= 1.00D-01 BMatC= 4.26D-01 BMatP= 1.31D-01
 IDIUse=2 WtCom= 0.00D+00 WtEn= 1.00D+00
 EnCoef did     4 forward-backward iterations
 Coeff-En:   0.000D+00 0.000D+00 0.000D+00 0.000D+00 0.000D+00 0.434D+00
 Coeff-En:   0.435D+00 0.130D+00
 Coeff:      0.000D+00 0.000D+00 0.000D+00 0.000D+00 0.000D+00 0.434D+00
 Coeff:      0.435D+00 0.130D+00
 Gap=     0.112 Goal=   None    Shift=    0.000
 RMSDP=1.82D-03 MaxDP=7.51D-02 DE= 2.10D-01 OVMax= 9.03D-02

 Cycle   9  Pass 1  IDiag  1:
 E= -758.025664124101     Delta-E=       -0.319910233528 Rises=F Damp=F
 DIIS: error= 9.16D-03 at cycle   9 NSaved=   9.
 NSaved= 9 IEnMin= 9 EnMin= -758.025664124101     IErMin= 9 ErrMin= 9.16D-03
 ErrMax= 9.16D-03  0.00D+00 EMaxC= 1.00D-01 BMatC= 2.08D-02 BMatP= 1.31D-01
 IDIUse=3 WtCom= 9.08D-01 WtEn= 9.16D-02
 EnCoef did     4 forward-backward iterations
 Coeff-Com: -0.324D-03-0.365D-03-0.160D-02-0.532D-02-0.494D-02 0.273D+00
 Coeff-Com:  0.288D+00 0.338D-01 0.418D+00
 Coeff-En:   0.000D+00 0.000D+00 0.000D+00 0.000D+00 0.000D+00 0.130D+00
 Coeff-En:   0.163D+00 0.000D+00 0.706D+00
 Coeff:     -0.294D-03-0.332D-03-0.145D-02-0.483D-02-0.449D-02 0.259D+00
 Coeff:      0.277D+00 0.307D-01 0.444D+00
 Gap=     0.119 Goal=   None    Shift=    0.000
 RMSDP=6.87D-04 MaxDP=2.56D-02 DE=-3.20D-01 OVMax= 3.91D-02

 Cycle  10  Pass 1  IDiag  1:
 E= -758.040396403058     Delta-E=       -0.014732278956 Rises=F Damp=F
 DIIS: error= 5.36D-03 at cycle  10 NSaved=  10.
 NSaved=10 IEnMin=10 EnMin= -758.040396403058     IErMin=10 ErrMin= 5.36D-03
 ErrMax= 5.36D-03  0.00D+00 EMaxC= 1.00D-01 BMatC= 3.06D-03 BMatP= 2.08D-02
 IDIUse=3 WtCom= 9.46D-01 WtEn= 5.36D-02
 Coeff-Com:  0.125D-02-0.302D-02 0.859D-04-0.259D-02-0.758D-02 0.838D-01
 Coeff-Com:  0.912D-01-0.527D-01 0.498D+00 0.392D+00
 Coeff-En:   0.000D+00 0.000D+00 0.000D+00 0.000D+00 0.000D+00 0.000D+00
 Coeff-En:   0.000D+00 0.000D+00 0.163D+00 0.837D+00
 Coeff:      0.118D-02-0.285D-02 0.813D-04-0.245D-02-0.718D-02 0.793D-01
 Coeff:      0.863D-01-0.498D-01 0.480D+00 0.415D+00
 Gap=     0.119 Goal=   None    Shift=    0.000
 RMSDP=2.59D-04 MaxDP=9.55D-03 DE=-1.47D-02 OVMax= 1.77D-02

 Cycle  11  Pass 1  IDiag  1:
 E= -758.042835362072     Delta-E=       -0.002438959015 Rises=F Damp=F
 DIIS: error= 1.15D-03 at cycle  11 NSaved=  11.
 NSaved=11 IEnMin=11 EnMin= -758.042835362072     IErMin=11 ErrMin= 1.15D-03
 ErrMax= 1.15D-03  0.00D+00 EMaxC= 1.00D-01 BMatC= 1.93D-04 BMatP= 3.06D-03
 IDIUse=3 WtCom= 9.88D-01 WtEn= 1.15D-02
 Coeff-Com:  0.842D-03-0.155D-02 0.389D-03 0.975D-03-0.279D-02 0.153D-01
 Coeff-Com:  0.456D-02-0.150D-01 0.124D+00 0.252D+00 0.621D+00
 Coeff-En:   0.000D+00 0.000D+00 0.000D+00 0.000D+00 0.000D+00 0.000D+00
 Coeff-En:   0.000D+00 0.000D+00 0.000D+00 0.955D-01 0.904D+00
 Coeff:      0.832D-03-0.154D-02 0.385D-03 0.964D-03-0.276D-02 0.152D-01
 Coeff:      0.451D-02-0.148D-01 0.123D+00 0.250D+00 0.624D+00
 Gap=     0.119 Goal=   None    Shift=    0.000
 RMSDP=5.73D-05 MaxDP=1.65D-03 DE=-2.44D-03 OVMax= 2.91D-03

 Cycle  12  Pass 1  IDiag  1:
 E= -758.042993510232     Delta-E=       -0.000158148159 Rises=F Damp=F
 DIIS: error= 1.45D-04 at cycle  12 NSaved=  12.
 NSaved=12 IEnMin=12 EnMin= -758.042993510232     IErMin=12 ErrMin= 1.45D-04
 ErrMax= 1.45D-04  0.00D+00 EMaxC= 1.00D-01 BMatC= 4.95D-06 BMatP= 1.93D-04
 IDIUse=3 WtCom= 9.99D-01 WtEn= 1.45D-03
 Coeff-Com:  0.257D-03-0.795D-03 0.239D-03 0.216D-03-0.647D-03 0.147D-02
 Coeff-Com: -0.472D-02 0.195D-06 0.655D-02 0.862D-01 0.301D+00 0.610D+00
 Coeff-En:   0.000D+00 0.000D+00 0.000D+00 0.000D+00 0.000D+00 0.000D+00
 Coeff-En:   0.000D+00 0.000D+00 0.000D+00 0.000D+00 0.000D+00 0.100D+01
 Coeff:      0.257D-03-0.794D-03 0.238D-03 0.216D-03-0.646D-03 0.147D-02
 Coeff:     -0.472D-02 0.195D-06 0.654D-02 0.861D-01 0.301D+00 0.611D+00
 Gap=     0.119 Goal=   None    Shift=    0.000
 RMSDP=1.56D-05 MaxDP=3.21D-04 DE=-1.58D-04 OVMax= 9.47D-04

 Cycle  13  Pass 1  IDiag  1:
 E= -758.042997599301     Delta-E=       -0.000004089069 Rises=F Damp=F
 DIIS: error= 1.21D-04 at cycle  13 NSaved=  13.
 NSaved=13 IEnMin=13 EnMin= -758.042997599301     IErMin=13 ErrMin= 1.21D-04
 ErrMax= 1.21D-04  0.00D+00 EMaxC= 1.00D-01 BMatC= 1.25D-06 BMatP= 4.95D-06
 IDIUse=3 WtCom= 9.99D-01 WtEn= 1.21D-03
 Coeff-Com:  0.156D-03-0.785D-03 0.155D-03-0.124D-03-0.257D-04-0.244D-03
 Coeff-Com: -0.278D-02 0.182D-03-0.669D-03 0.341D-01 0.120D+00 0.302D+00
 Coeff-Com:  0.547D+00
 Coeff-En:   0.000D+00 0.000D+00 0.000D+00 0.000D+00 0.000D+00 0.000D+00
 Coeff-En:   0.000D+00 0.000D+00 0.000D+00 0.000D+00 0.000D+00 0.000D+00
 Coeff-En:   0.100D+01
 Coeff:      0.156D-03-0.784D-03 0.155D-03-0.124D-03-0.257D-04-0.243D-03
 Coeff:     -0.277D-02 0.182D-03-0.668D-03 0.340D-01 0.120D+00 0.302D+00
 Coeff:      0.548D+00
 Gap=     0.119 Goal=   None    Shift=    0.000
 RMSDP=5.89D-06 MaxDP=1.57D-04 DE=-4.09D-06 OVMax= 3.46D-04

 Cycle  14  Pass 1  IDiag  1:
 E= -758.042998456402     Delta-E=       -0.000000857101 Rises=F Damp=F
 DIIS: error= 7.71D-05 at cycle  14 NSaved=  14.
 NSaved=14 IEnMin=14 EnMin= -758.042998456402     IErMin=14 ErrMin= 7.71D-05
 ErrMax= 7.71D-05  0.00D+00 EMaxC= 1.00D-01 BMatC= 4.74D-07 BMatP= 1.25D-06
 IDIUse=1 WtCom= 1.00D+00 WtEn= 0.00D+00
 Coeff-Com:  0.118D-03-0.535D-03 0.106D-03-0.174D-03 0.986D-04-0.449D-03
 Coeff-Com: -0.842D-03-0.456D-03 0.206D-02 0.141D-01 0.426D-01 0.700D-01
 Coeff-Com:  0.266D+00 0.607D+00
 Coeff:      0.118D-03-0.535D-03 0.106D-03-0.174D-03 0.986D-04-0.449D-03
 Coeff:     -0.842D-03-0.456D-03 0.206D-02 0.141D-01 0.426D-01 0.700D-01
 Coeff:      0.266D+00 0.607D+00
 Gap=     0.119 Goal=   None    Shift=    0.000
 RMSDP=2.85D-06 MaxDP=7.03D-05 DE=-8.57D-07 OVMax= 1.64D-04

 Cycle  15  Pass 1  IDiag  1:
 E= -758.042998768544     Delta-E=       -0.000000312142 Rises=F Damp=F
 DIIS: error= 4.66D-05 at cycle  15 NSaved=  15.
 NSaved=15 IEnMin=15 EnMin= -758.042998768544     IErMin=15 ErrMin= 4.66D-05
 ErrMax= 4.66D-05  0.00D+00 EMaxC= 1.00D-01 BMatC= 1.78D-07 BMatP= 4.74D-07
 IDIUse=1 WtCom= 1.00D+00 WtEn= 0.00D+00
 Coeff-Com:  0.134D-03-0.167D-03 0.380D-04-0.671D-04 0.117D-04-0.514D-03
 Coeff-Com:  0.697D-03-0.405D-03 0.245D-02-0.164D-02-0.837D-02-0.114D+00
 Coeff-Com: -0.240D+00 0.241D+00 0.112D+01
 Coeff:      0.134D-03-0.167D-03 0.380D-04-0.671D-04 0.117D-04-0.514D-03
 Coeff:      0.697D-03-0.405D-03 0.245D-02-0.164D-02-0.837D-02-0.114D+00
 Coeff:     -0.240D+00 0.241D+00 0.112D+01
 Gap=     0.119 Goal=   None    Shift=    0.000
 RMSDP=2.50D-06 MaxDP=4.66D-05 DE=-3.12D-07 OVMax= 1.77D-04

 Cycle  16  Pass 1  IDiag  1:
 E= -758.042998953600     Delta-E=       -0.000000185056 Rises=F Damp=F
 DIIS: error= 8.40D-06 at cycle  16 NSaved=  16.
 NSaved=16 IEnMin=16 EnMin= -758.042998953600     IErMin=16 ErrMin= 8.40D-06
 ErrMax= 8.40D-06  0.00D+00 EMaxC= 1.00D-01 BMatC= 1.49D-08 BMatP= 1.78D-07
 IDIUse=1 WtCom= 1.00D+00 WtEn= 0.00D+00
 Coeff-Com:  0.622D-04-0.509D-04 0.119D-04-0.131D-04-0.146D-04-0.857D-04
 Coeff-Com:  0.411D-03-0.136D-03 0.114D-02 0.116D-03 0.305D-04-0.564D-01
 Coeff-Com: -0.153D+00 0.243D-01 0.560D+00 0.624D+00
 Coeff:      0.622D-04-0.509D-04 0.119D-04-0.131D-04-0.146D-04-0.857D-04
 Coeff:      0.411D-03-0.136D-03 0.114D-02 0.116D-03 0.305D-04-0.564D-01
 Coeff:     -0.153D+00 0.243D-01 0.560D+00 0.624D+00
 Gap=     0.119 Goal=   None    Shift=    0.000
 RMSDP=8.57D-07 MaxDP=2.14D-05 DE=-1.85D-07 OVMax= 4.08D-05

 Cycle  17  Pass 1  IDiag  1:
 E= -758.042998967752     Delta-E=       -0.000000014152 Rises=F Damp=F
 DIIS: error= 2.20D-06 at cycle  17 NSaved=  17.
 NSaved=17 IEnMin=17 EnMin= -758.042998967752     IErMin=17 ErrMin= 2.20D-06
 ErrMax= 2.20D-06  0.00D+00 EMaxC= 1.00D-01 BMatC= 1.49D-09 BMatP= 1.49D-08
 IDIUse=1 WtCom= 1.00D+00 WtEn= 0.00D+00
 Coeff-Com:  0.144D-05-0.676D-05 0.562D-06 0.788D-05-0.443D-05 0.956D-04
 Coeff-Com: -0.156D-04 0.105D-05 0.246D-04 0.101D-02 0.400D-02-0.408D-03
 Coeff-Com: -0.171D-01-0.317D-01 0.231D-01 0.283D+00 0.738D+00
 Coeff:      0.144D-05-0.676D-05 0.562D-06 0.788D-05-0.443D-05 0.956D-04
 Coeff:     -0.156D-04 0.105D-05 0.246D-04 0.101D-02 0.400D-02-0.408D-03
 Coeff:     -0.171D-01-0.317D-01 0.231D-01 0.283D+00 0.738D+00
 Gap=     0.119 Goal=   None    Shift=    0.000
 RMSDP=3.73D-07 MaxDP=1.18D-05 DE=-1.42D-08 OVMax= 4.12D-05

 Cycle  18  Pass 1  IDiag  1:
 E= -758.042998969560     Delta-E=       -0.000000001808 Rises=F Damp=F
 DIIS: error= 6.07D-07 at cycle  18 NSaved=  18.
 NSaved=18 IEnMin=18 EnMin= -758.042998969560     IErMin=18 ErrMin= 6.07D-07
 ErrMax= 6.07D-07  0.00D+00 EMaxC= 1.00D-01 BMatC= 1.84D-10 BMatP= 1.49D-09
 IDIUse=1 WtCom= 1.00D+00 WtEn= 0.00D+00
 Coeff-Com: -0.333D-05-0.199D-06-0.102D-06 0.326D-05-0.446D-06 0.480D-04
 Coeff-Com: -0.232D-04 0.764D-05 0.242D-05 0.572D-03 0.208D-02 0.284D-02
 Coeff-Com:  0.173D-02-0.713D-02-0.109D-01 0.679D-01 0.317D+00 0.625D+00
 Coeff:     -0.333D-05-0.199D-06-0.102D-06 0.326D-05-0.446D-06 0.480D-04
 Coeff:     -0.232D-04 0.764D-05 0.242D-05 0.572D-03 0.208D-02 0.284D-02
 Coeff:      0.173D-02-0.713D-02-0.109D-01 0.679D-01 0.317D+00 0.625D+00
 Gap=     0.119 Goal=   None    Shift=    0.000
 RMSDP=7.86D-08 MaxDP=2.04D-06 DE=-1.81D-09 OVMax= 3.39D-06

 Cycle  19  Pass 1  IDiag  1:
 E= -758.042998969718     Delta-E=       -0.000000000157 Rises=F Damp=F
 DIIS: error= 3.57D-07 at cycle  19 NSaved=  19.
 NSaved=19 IEnMin=19 EnMin= -758.042998969718     IErMin=19 ErrMin= 3.57D-07
 ErrMax= 3.57D-07  0.00D+00 EMaxC= 1.00D-01 BMatC= 4.40D-11 BMatP= 1.84D-10
 IDIUse=1 WtCom= 1.00D+00 WtEn= 0.00D+00
 Coeff-Com: -0.224D-05 0.129D-05-0.101D-06 0.943D-06 0.616D-07 0.153D-04
 Coeff-Com: -0.717D-05 0.460D-05 0.115D-04 0.216D-03 0.748D-03 0.131D-02
 Coeff-Com:  0.230D-02 0.123D-02-0.341D-02 0.716D-02 0.109D+00 0.329D+00
 Coeff-Com:  0.553D+00
 Coeff:     -0.224D-05 0.129D-05-0.101D-06 0.943D-06 0.616D-07 0.153D-04
 Coeff:     -0.717D-05 0.460D-05 0.115D-04 0.216D-03 0.748D-03 0.131D-02
 Coeff:      0.230D-02 0.123D-02-0.341D-02 0.716D-02 0.109D+00 0.329D+00
 Coeff:      0.553D+00
 Gap=     0.119 Goal=   None    Shift=    0.000
 RMSDP=2.68D-08 MaxDP=1.02D-06 DE=-1.57D-10 OVMax= 1.38D-06

 Cycle  20  Pass 1  IDiag  1:
 E= -758.042998969741     Delta-E=       -0.000000000023 Rises=F Damp=F
 DIIS: error= 2.26D-07 at cycle  20 NSaved=  20.
 NSaved=20 IEnMin=20 EnMin= -758.042998969741     IErMin=20 ErrMin= 2.26D-07
 ErrMax= 2.26D-07  0.00D+00 EMaxC= 1.00D-01 BMatC= 9.33D-12 BMatP= 4.40D-11
 IDIUse=1 WtCom= 1.00D+00 WtEn= 0.00D+00
 Coeff-Com: -0.354D-06 0.609D-06-0.594D-07-0.846D-07 0.255D-07-0.343D-05
 Coeff-Com:  0.344D-05 0.300D-06 0.951D-05-0.169D-04-0.549D-04-0.136D-03
 Coeff-Com:  0.337D-03 0.268D-02 0.417D-02-0.737D-02-0.214D-02 0.129D-01
 Coeff-Com:  0.163D+00 0.827D+00
 Coeff:     -0.354D-06 0.609D-06-0.594D-07-0.846D-07 0.255D-07-0.343D-05
 Coeff:      0.344D-05 0.300D-06 0.951D-05-0.169D-04-0.549D-04-0.136D-03
 Coeff:      0.337D-03 0.268D-02 0.417D-02-0.737D-02-0.214D-02 0.129D-01
 Coeff:      0.163D+00 0.827D+00
 Gap=     0.119 Goal=   None    Shift=    0.000
 RMSDP=1.67D-08 MaxDP=5.28D-07 DE=-2.30D-11 OVMax= 1.24D-06

 Cycle  21  Pass 1  IDiag  1:
 E= -758.042998969789     Delta-E=       -0.000000000048 Rises=F Damp=F
 DIIS: error= 7.45D-08 at cycle  21 NSaved=  20.
 NSaved=20 IEnMin=20 EnMin= -758.042998969789     IErMin=20 ErrMin= 7.45D-08
 ErrMax= 7.45D-08  0.00D+00 EMaxC= 1.00D-01 BMatC= 8.10D-13 BMatP= 9.33D-12
 IDIUse=1 WtCom= 1.00D+00 WtEn= 0.00D+00
 Coeff-Com: -0.868D-08 0.340D-06-0.131D-06-0.167D-07-0.362D-05 0.284D-05
 Coeff-Com: -0.467D-06 0.396D-05-0.308D-04-0.952D-04-0.248D-03-0.191D-03
 Coeff-Com:  0.148D-02 0.363D-02-0.358D-02-0.791D-02-0.231D-01 0.311D-01
 Coeff-Com:  0.478D+00 0.521D+00
 Coeff:     -0.868D-08 0.340D-06-0.131D-06-0.167D-07-0.362D-05 0.284D-05
 Coeff:     -0.467D-06 0.396D-05-0.308D-04-0.952D-04-0.248D-03-0.191D-03
 Coeff:      0.148D-02 0.363D-02-0.358D-02-0.791D-02-0.231D-01 0.311D-01
 Coeff:      0.478D+00 0.521D+00
 Gap=     0.119 Goal=   None    Shift=    0.000
 RMSDP=6.00D-09 MaxDP=1.03D-07 DE=-4.80D-11 OVMax= 3.32D-07

 SCF Done:  E(RB3LYP) =  -758.042998970     A.U. after   21 cycles
            NFock= 21  Conv=0.60D-08     -V/T= 2.0978
 KE= 6.904842473337D+02 PE=-3.784728906587D+03 EE= 1.315495278642D+03
 Leave Link  502 at Wed May  9 13:09:46 2018, MaxMem=   786432000 cpu:             424.4 elap:              74.2
 (Enter /opt/G16/g16/l601.exe)
 Copying SCF densities to generalized density rwf, IOpCl= 0 IROHF=0.
 Hyperfine terms turned off by default for NAtoms > 100.

 **********************************************************************

            Population analysis using the SCF density.

 **********************************************************************

 Orbital symmetries:
       Occupied  (A) (A) (A) (A) (A) (A) (A) (A) (A) (A) (A) (A)
                 (A) (A) (A) (A) (A) (A) (A) (A) (A) (A) (A) (A)
                 (A) (A) (A) (A) (A) (A) (A) (A) (A) (A) (A) (A)
                 (A) (A) (A) (A) (A) (A) (A) (A) (A) (A) (A) (A)
                 (A) (A) (A) (A) (A) (A) (A) (A) (A)
       Virtual   (A) (A) (A) (A) (A) (A) (A) (A) (A) (A) (A) (A)
                 (A) (A) (A) (A) (A) (A) (A) (A) (A) (A) (A) (A)
                 (A) (A) (A) (A) (A) (A) (A) (A) (A) (A) (A) (A)
                 (A) (A) (A) (A) (A) (A) (A) (A) (A) (A) (A) (A)
                 (A) (A) (A) (A) (A) (A) (A) (A) (A) (A) (A) (A)
                 (A) (A) (A) (A) (A) (A) (A) (A) (A) (A) (A) (A)
                 (A) (A) (A) (A) (A) (A) (A) (A) (A) (A) (A) (A)
                 (A) (A) (A) (A) (A) (A) (A) (A) (A) (A) (A) (A)
                 (A) (A) (A) (A) (A) (A) (A) (A) (A) (A) (A) (A)
                 (A) (A) (A) (A) (A) (A) (A) (A) (A) (A) (A) (A)
                 (A) (A) (A) (A)
 The electronic state is 1-A.
 Alpha  occ. eigenvalues --  -19.18123 -19.17962 -19.16656 -19.16538 -14.36898
 Alpha  occ. eigenvalues --  -10.21799 -10.20994 -10.20112 -10.19107 -10.19076
 Alpha  occ. eigenvalues --  -10.19038 -10.18992 -10.18915  -3.63130  -2.13476
 Alpha  occ. eigenvalues --   -2.12229  -2.11680  -0.96002  -0.94268  -0.93889
 Alpha  occ. eigenvalues --   -0.92371  -0.90081  -0.86594  -0.79963  -0.75221
 Alpha  occ. eigenvalues --   -0.73378  -0.63449  -0.61059  -0.57220  -0.52314
 Alpha  occ. eigenvalues --   -0.51769  -0.50898  -0.48525  -0.46976  -0.46526
 Alpha  occ. eigenvalues --   -0.46233  -0.45824  -0.45424  -0.45061  -0.44420
 Alpha  occ. eigenvalues --   -0.42749  -0.42377  -0.39964  -0.38563  -0.37160
 Alpha  occ. eigenvalues --   -0.35278  -0.35167  -0.34483  -0.33141  -0.32983
 Alpha  occ. eigenvalues --   -0.30870  -0.30029  -0.29787  -0.29170  -0.26878
 Alpha  occ. eigenvalues --   -0.25512  -0.22097
 Alpha virt. eigenvalues --   -0.10193  -0.09688  -0.03217  -0.02558  -0.01842
 Alpha virt. eigenvalues --   -0.00122   0.00790   0.01077   0.04589   0.05347
 Alpha virt. eigenvalues --    0.06374   0.07093   0.10070   0.11953   0.12889
 Alpha virt. eigenvalues --    0.13774   0.14739   0.15787   0.16268   0.16921
 Alpha virt. eigenvalues --    0.17372   0.18350   0.20377   0.21444   0.26883
 Alpha virt. eigenvalues --    0.28604   0.29357   0.29770   0.30711   0.32793
 Alpha virt. eigenvalues --    0.33460   0.35622   0.39230   0.42844   0.44025
 Alpha virt. eigenvalues --    0.48263   0.49787   0.50912   0.52397   0.53875
 Alpha virt. eigenvalues --    0.54174   0.56173   0.57569   0.58823   0.59860
 Alpha virt. eigenvalues --    0.60633   0.61358   0.62972   0.63624   0.64838
 Alpha virt. eigenvalues --    0.65548   0.66431   0.68356   0.71243   0.74960
 Alpha virt. eigenvalues --    0.75120   0.76794   0.78285   0.79071   0.82251
 Alpha virt. eigenvalues --    0.83698   0.84882   0.85067   0.86777   0.87372
 Alpha virt. eigenvalues --    0.87882   0.88103   0.90799   0.92446   0.93118
 Alpha virt. eigenvalues --    0.93883   0.96344   0.97300   0.98251   0.99852
 Alpha virt. eigenvalues --    1.00054   1.02036   1.03475   1.03747   1.05641
 Alpha virt. eigenvalues --    1.07966   1.09183   1.11117   1.11825   1.13350
 Alpha virt. eigenvalues --    1.14894   1.16648   1.18583   1.20729   1.22711
 Alpha virt. eigenvalues --    1.30780   1.35354   1.38444   1.40679   1.43994
 Alpha virt. eigenvalues --    1.47506   1.48097   1.50232   1.57837   1.65270
 Alpha virt. eigenvalues --    1.65497   1.72089   1.72811   1.74321   1.76012
 Alpha virt. eigenvalues --    1.79047   1.79737   1.80491   1.82733   1.83584
 Alpha virt. eigenvalues --    1.88481   1.89591   1.91074   1.92328   1.93968
 Alpha virt. eigenvalues --    1.98766   1.99731   2.01976   2.06132   2.08325
 Alpha virt. eigenvalues --    2.16382   2.22727   2.26177   7.66165
          Condensed to atoms (all electrons):
 Mulliken charges:
               1
     1  Os   2.015983
     2  O   -0.626759
     3  O   -0.626265
     4  O   -0.596898
     5  O   -0.629828
     6  N   -0.826575
     7  C   -0.085433
     8  C   -0.222570
     9  H    0.165560
    10  H    0.153006
    11  H    0.341472
    12  H    0.338876
    13  H    0.338737
    14  O    0.000000
    15  O    0.000000
    16  C    0.000000
    17  C    0.000000
    18  C    0.000000
    19  C    0.000000
    20  C    0.000000
    21  C    0.000000
    22  C    0.000000
    23  C    0.000000
    24  C    0.000000
    25  C    0.000000
    26  N    0.000000
    27  C    0.000000
    28  C    0.000000
    29  C    0.000000
    30  C    0.000000
    31  N    0.000000
    32  C    0.000000
    33  C    0.000000
    34  C    0.000000
    35  C    0.000000
    36  C    0.000000
    37  N    0.000000
    38  N    0.000000
    39  N    0.000000
    40  O    0.000000
    41  O    0.000000
    42  C    0.000000
    43  C    0.000000
    44  C    0.000000
    45  C    0.000000
    46  C    0.000000
    47  C    0.000000
    48  C    0.000000
    49  C    0.000000
    50  C    0.000000
    51  C    0.000000
    52  C    0.000000
    53  C    0.000000
    54  C    0.000000
    55  C    0.000000
    56  C    0.000000
    57  C    0.000000
    58  C    0.000000
    59  C    0.000000
    60  C    0.000000
    61  C    0.000000
    62  C    0.000000
    63  C    0.000000
    64  H    0.000000
    65  H    0.000000
    66  H    0.000000
    67  H    0.000000
    68  H    0.000000
    69  H    0.000000
    70  H    0.000000
    71  H    0.000000
    72  H    0.000000
    73  H    0.000000
    74  H    0.000000
    75  H    0.000000
    76  H    0.000000
    77  H    0.000000
    78  H    0.000000
    79  H    0.000000
    80  H    0.000000
    81  H    0.000000
    82  H    0.000000
    83  H    0.000000
    84  H    0.000000
    85  H    0.000000
    86  H    0.000000
    87  H    0.000000
    88  H    0.000000
    89  H    0.000000
    90  H    0.000000
    91  H    0.000000
    92  H    0.000000
    93  H    0.000000
    94  H    0.000000
    95  H    0.000000
    96  H    0.000000
    97  H    0.000000
    98  H    0.000000
    99  H    0.000000
   100  H    0.000000
   101  H    0.000000
   102  H    0.000000
   103  H    0.000000
   104  H    0.000000
   105  H    0.000000
   106  H    0.000000
   107  H    0.000000
   108  H    0.000000
   109  H    0.000000
   110  H    0.000000
   111  H    0.000000
   112  H    0.000000
   113  H    0.000000
   114  H    0.000000
   115  H    0.000000
   116  H    0.166020
   117  C    0.111732
   118  C   -0.156322
   119  C   -0.148821
   120  C   -0.129483
   121  H    0.128682
   122  C   -0.130902
   123  H    0.152012
   124  C   -0.118881
   125  H    0.127262
   126  H    0.131572
   127  H    0.127821
 Sum of Mulliken charges =  -0.00000
 Mulliken charges with hydrogens summed into heavy atoms:
               1
     1  Os   2.015983
     2  O   -0.626759
     3  O   -0.626265
     4  O   -0.596898
     5  O   -0.629828
     6  N    0.192511
     7  C    0.067573
     8  C    0.109011
    14  O    0.000000
    15  O    0.000000
    16  C    0.000000
    17  C    0.000000
    18  C    0.000000
    19  C    0.000000
    20  C    0.000000
    21  C    0.000000
    22  C    0.000000
    23  C    0.000000
    24  C    0.000000
    25  C    0.000000
    26  N    0.000000
    27  C    0.000000
    28  C    0.000000
    29  C    0.000000
    30  C    0.000000
    31  N    0.000000
    32  C    0.000000
    33  C    0.000000
    34  C    0.000000
    35  C    0.000000
    36  C    0.000000
    37  N    0.000000
    38  N    0.000000
    39  N    0.000000
    40  O    0.000000
    41  O    0.000000
    42  C    0.000000
    43  C    0.000000
    44  C    0.000000
    45  C    0.000000
    46  C    0.000000
    47  C    0.000000
    48  C    0.000000
    49  C    0.000000
    50  C    0.000000
    51  C    0.000000
    52  C    0.000000
    53  C    0.000000
    54  C    0.000000
    55  C    0.000000
    56  C    0.000000
    57  C    0.000000
    58  C    0.000000
    59  C    0.000000
    60  C    0.000000
    61  C    0.000000
    62  C    0.000000
    63  C    0.000000
   117  C    0.111732
   118  C   -0.027639
   119  C    0.003191
   120  C   -0.002222
   122  C    0.000670
   124  C    0.008939
 Electronic spatial extent (au):  <R**2>=          12269.3167
 Charge=             -0.0000 electrons
 Dipole moment (field-independent basis, Debye):
    X=             -3.3552    Y=              1.9858    Z=             -1.6808  Tot=              4.2457
 Quadrupole moment (field-independent basis, Debye-Ang):
   XX=            -77.4477   YY=            -87.5475   ZZ=            -95.6197
   XY=             -3.6177   XZ=              7.7017   YZ=             -0.0199
 Traceless Quadrupole moment (field-independent basis, Debye-Ang):
   XX=              9.4239   YY=             -0.6758   ZZ=             -8.7480
   XY=             -3.6177   XZ=              7.7017   YZ=             -0.0199
 Octapole moment (field-independent basis, Debye-Ang**2):
  XXX=           1031.1732  YYY=            582.1208  ZZZ=            180.3485  XYY=            368.0008
  XXY=            180.4604  XXZ=             39.3621  XZZ=            373.4460  YZZ=            176.7388
  YYZ=             57.5703  XYZ=              7.2164
 Hexadecapole moment (field-independent basis, Debye-Ang**3):
 XXXX=         -10943.1459 YYYY=          -3878.5570 ZZZZ=           -805.9177 XXXY=          -2645.3771
 XXXZ=           -677.2832 YYYX=          -3062.2754 YYYZ=           -442.4367 ZZZX=           -716.5227
 ZZZY=           -393.1117 XXYY=          -2636.8519 XXZZ=          -2044.6025 YYZZ=           -716.3683
 XXYZ=           -191.5211 YYXZ=           -283.9366 ZZXY=           -898.0346
 N-N= 1.020706381642D+03 E-N=-3.784728905599D+03  KE= 6.904842473337D+02
 Leave Link  601 at Wed May  9 13:09:46 2018, MaxMem=   786432000 cpu:               0.4 elap:               0.1
 (Enter /opt/G16/g16/l120.exe)
 SvSCFP is copying densities from files   528 and   530 to   603.
 ONIOM: saving gridpoint  2
 ONIOM: restoring gridpoint 17
 ONIOM: generating point  1 -- low level on model system.
 Leave Link  120 at Wed May  9 13:09:46 2018, MaxMem=   786432000 cpu:               0.2 elap:               0.0
 (Enter /opt/G16/g16/l301.exe)
 General basis read from cards:  (5D, 7F)
 Centers:       1
 LanL2DZ
 ****
 Centers:       2      3      4      5     14     15     40     41
 6-31G*
 ****
 Centers:       7      8     16     17     18     19     20     21     22     23
 Centers:      24     25     27     28     29     30     32     33     34     35
 Centers:      36     42     43     44     45     46     47     48     49     50
 Centers:      51     52     53     54     55     56     57     58     59     60
 Centers:      61     62     63    117    118    119    120    122    124      9
 Centers:      10     11     12     13     64     65     66     67     68     69
 Centers:      70     71     72     73     74     75     76     77     78     79
 Centers:      80     81     82     83     84     85     86     87     88     89
 Centers:      90     91     92     93     94     95     96     97     98     99
 Centers:     100    101    102    103    104    105    106    107    108    109
 Centers:     110    111    112    113    114    115    116    121    123    125
 Centers:     126    127      6     26     31     37     38     39
 6-31G
 ****
 Ernie: Thresh=  0.10000D-02 Tol=  0.10000D-05 Strict=F.
 Ernie:  1 primitive shells out of 195 were deleted.
 There are   187 symmetry adapted cartesian basis functions of A   symmetry.
 There are   181 symmetry adapted basis functions of A   symmetry.
   181 basis functions,   397 primitive gaussians,   187 cartesian basis functions
    87 alpha electrons       87 beta electrons
       nuclear repulsion energy      2121.4997320690 Hartrees.



 Warning!  Os atom    1 has 76 valence electrons but only  22 basis functions.
 This is less than a minimal basis set!



 IExCor=    0 DFT=F Ex=HF Corr=None ExCW=0 ScaHFX=  1.000000
 ScaDFX=  1.000000  1.000000  1.000000  1.000000 ScalE2=  1.000000  1.000000
 IRadAn=      5 IRanWt=     -1 IRanGd=            0 ICorTp=0 IEmpDi=  4
 NAtoms=  127 NActive=   25 NUniq=   25 SFac= 1.00D+00 NAtFMM=   60 NAOKFM=F Big=F
 Integral buffers will be    131072 words long.
 Raffenetti 1 integral format.
 Two-electron integral symmetry is turned on.
 Leave Link  301 at Wed May  9 13:09:46 2018, MaxMem=   786432000 cpu:               0.2 elap:               0.0
 (Enter /opt/G16/g16/l402.exe)
 External calculation of energy.
 Running external command "garleek-backend --qm gaussian --mm tinker --ff 'Os.key' M"
         input file       "/home/jrodriguez/dev/garleek/tests/data/Os/Gau-13427.EIn"
         output file      "/home/jrodriguez/dev/garleek/tests/data/Os/Gau-13427.EOu"
         message file     "/home/jrodriguez/dev/garleek/tests/data/Os/Gau-13427.EMs"
         fchk file        "/home/jrodriguez/dev/garleek/tests/data/Os/Gau-13427.EFC"
         mat. el file     "/home/jrodriguez/dev/garleek/tests/data/Os/Gau-13427.EUF"
==============================================
Entering Garleek v0+untagged.60.gdbe7248.dirty
==============================================
Running TINKER: /home/jrodriguez/.local/anaconda/envs/garleek/bin/analyze /scratch/tmpkvm0ryig.xyz -k /home/jrodriguez/dev/garleek/tests/data/Os/Os.key E,M
==============================================
               Exiting Garleek                
==============================================
 Recovered energy=  6.11811720281     dipole=     -0.036589018551     -0.104652461662     -0.070030594646
 Energy=     6.11811720     NIter=   0.
 Dipole moment=      -0.036589      -0.104652      -0.070031
 Leave Link  402 at Wed May  9 13:09:47 2018, MaxMem=   786432000 cpu:               3.8 elap:               0.8
 (Enter /opt/G16/g16/l601.exe)
 Hyperfine terms turned off by default for NAtoms > 100.
 Leave Link  601 at Wed May  9 13:09:47 2018, MaxMem=   786432000 cpu:               0.1 elap:               0.0
 (Enter /opt/G16/g16/l120.exe)
 SvSCFP did not find density file   528.
 ONIOM: saving gridpoint  1
 ONIOM: restoring gridpoint  3
 ONIOM: calculating energy.
 ONIOM: gridpoint  1 method:  low   system:  model energy:     6.118117202807
 ONIOM: gridpoint  2 method:  high  system:  model energy:  -758.042998969789
 ONIOM: gridpoint  3 method:  low   system:  real  energy:     6.325874412292
 ONIOM: extrapolated energy =    -757.835241760304
 ONIOM: calculating electric field derivatives.
 ONIOM: Integrating ONIOM file  4 number   619
 ONIOM: Dipole        =-9.41560560D-01 1.15817355D+00-2.37386244D+00
 ONIOM: Dipole moment (Debye):
    X=    -2.3932    Y=     2.9438    Z=    -6.0338  Tot=     7.1274
 ONIOM: Integrating ONIOM file  5 number   695
 Saving ESP charges from gridpoint 2
 Leave Link  120 at Wed May  9 13:09:47 2018, MaxMem=   786432000 cpu:               0.0 elap:               0.0
 (Enter /opt/G16/g16/l9999.exe)
 1\1\GINC-P007\SP\ONIOM(B3LYP/GenECP:External='garleek-backend --qm gau
 ssian --mm tinker --ff 'Os.k\Mixed\C52H60N6O8Os1\JRODRIGUEZ\09-May-201
 8\0\\#p SP oniom(b3lyp/genecp:external="garleek-backend --qm gaussian 
 --mm tinker --ff 'Os.key'"/gen) geom=connectivity\\ONIOM(B3LYP:MM3) TS
  OPT FREQ\\0,1\Os,0,-2.337766,-0.832632,-0.448897\O,0,-0.947686,-0.160
 305,-1.225347\O,0,-3.636745,-1.235149,-1.57651\O,0,-1.844738,-2.51073,
 -0.218248\O,0,-2.899003,-0.409449,1.130209\N,0,-3.176691,1.571989,-0.7
 97899\C,0,-4.052045,-3.273776,-1.862041\C,0,-2.918481,-3.901967,-1.367
 828\H,0,-2.059238,-4.053565,-2.010118\H,0,-4.065708,-3.008826,-2.91410
 3\C,0,-2.701072,2.568763,0.193819\C,0,-2.866279,1.973335,-2.177545\C,0
 ,-4.641939,1.470243,-0.672235\O,0,-0.553346,-0.376798,4.80953\O,0,-0.4
 37248,2.969799,-0.623514\C,0,-0.796249,3.286986,1.739745\C,0,-0.571878
 ,4.603789,1.601029\C,0,-0.201958,5.34359,2.647411\C,0,-0.195805,3.5930
 9,3.973757\C,0,0.030751,3.096046,5.197436\C,0,-0.100036,1.789801,5.445
 243\C,0,-0.472523,0.947155,4.472499\C,0,-0.709464,1.448433,3.245255\C,
 0,-0.578639,2.764867,2.970956\C,0,-0.800104,-1.347874,3.790998\N,0,-0.
 02164,4.853259,3.81233\C,0,-1.190538,2.472105,0.494664\C,0,-3.170994,3
 .973537,-0.256675\C,0,-4.263382,3.845724,-1.328324\C,0,-5.310517,2.855
 442,-0.800987\N,0,1.306336,1.752452,0.197108\C,0,-3.651297,3.237825,-2
 .606071\C,0,-2.778635,4.228798,-3.3987\C,0,-2.315669,3.671559,-4.75238
 1\C,0,0.800682,2.419022,-0.775469\C,0,1.408416,2.507045,-1.958864\N,0,
 1.322478,-3.442587,-1.307247\N,0,6.743721,-0.381151,0.270736\N,0,2.414
 287,1.154882,0.059161\O,0,2.517149,-3.081419,3.897474\O,0,4.192329,0.4
 83531,-1.193804\C,0,3.25544,-1.677247,-0.608043\C,0,2.854178,-1.833908
 ,-1.879851\C,0,1.901521,-2.717111,-2.184621\C,0,1.67317,-3.307855,-0.0
 80961\C,0,1.044589,-4.067966,0.826304\C,0,1.344879,-3.978898,2.125474\
 C,0,2.292468,-3.130778,2.548553\C,0,2.921387,-2.364961,1.637535\C,0,2.
 631095,-2.43797,0.320875\C,0,3.320783,-2.026431,4.431007\C,0,4.319413,
 -0.614369,-0.278056\C,0,7.937662,-1.192162,0.526467\C,0,8.451694,-1.82
 1236,-0.787906\C,0,7.690554,-1.182465,-1.962184\C,0,6.205615,-1.554884
 ,-1.814121\C,0,5.728705,-1.226641,-0.380525\C,0,7.132496,0.778792,-0.5
 36607\C,0,7.850613,0.347619,-1.840616\C,0,7.34303,1.115115,-3.075536\C
 ,0,7.679651,2.612428,-3.032358\C,0,3.048169,1.211759,-1.054502\C,0,2.5
 71711,1.883501,-2.102909\H,0,-0.68649,5.098838,0.623627\H,0,-0.03392,6
 .426943,2.519657\H,0,0.344357,3.773071,6.010774\H,0,0.10815,1.402861,6
 .45768\H,0,-1.007941,0.751955,2.451921\H,0,-0.734669,-2.361892,4.23534
 1\H,0,-1.81979,-1.226511,3.373323\H,0,-0.04317,-1.279088,2.982653\H,0,
 -0.963783,1.400078,0.646982\H,0,-3.214652,2.337152,1.157127\H,0,-2.331
 473,4.568995,-0.669643\H,0,-3.55602,4.542701,0.619866\H,0,-4.731311,4.
 834874,-1.541133\H,0,-6.187094,2.803032,-1.485487\H,0,-5.693628,3.1975
 77,0.187149\H,0,-4.915172,1.008262,0.301718\H,0,-5.04281,0.791682,-1.4
 56553\H,0,-3.110341,1.137867,-2.870584\H,0,-1.776701,2.136165,-2.28862
 5\H,0,-4.494436,2.928503,-3.270441\H,0,-1.88531,4.522413,-2.803314\H,0
 ,-3.358985,5.163482,-3.577746\H,0,-1.715921,4.422209,-5.314484\H,0,-1.
 679337,2.766905,-4.634284\H,0,-3.179033,3.390661,-5.39588\H,0,0.946787
 ,3.052453,-2.798283\H,0,3.300907,-1.238505,-2.692693\H,0,1.584323,-2.8
 38645,-3.234741\H,0,0.26155,-4.773071,0.49787\H,0,0.804478,-4.606825,2
 .854671\H,0,3.693912,-1.667609,1.988954\H,0,3.325284,-2.100958,5.53759
 2\H,0,4.370213,-2.11142,4.080867\H,0,2.904017,-1.034546,4.15753\H,0,4.
 194807,-0.235566,0.757443\H,0,7.706724,-1.986813,1.270155\H,0,8.728557
 ,-0.560529,0.988485\H,0,8.286666,-2.922594,-0.782552\H,0,9.548317,-1.6
 60362,-0.893383\H,0,8.095741,-1.547998,-2.934372\H,0,6.058564,-2.63916
 9,-2.021838\H,0,5.608421,-1.012063,-2.57558\H,0,5.690346,-2.183839,0.1
 91698\H,0,7.805283,1.434731,0.05968\H,0,6.242586,1.400315,-0.757967\H,
 0,8.941381,0.565265,-1.736537\H,0,6.241961,0.994178,-3.182811\H,0,7.79
 9137,0.674059,-3.992025\H,0,7.326406,3.132577,-3.950961\H,0,7.203956,3
 .121004,-2.165064\H,0,8.776869,2.782933,-2.958461\H,0,3.108568,1.89497
 7,-3.065614\H,0,-2.959974,-4.517279,-0.478088\C,0,-5.360705,-3.299236,
 -1.19268\C,0,-6.527262,-3.103963,-1.951586\C,0,-5.488349,-3.499603,0.1
 94449\C,0,-7.784783,-3.130406,-1.351202\H,0,-6.441387,-2.936864,-3.022
 727\C,0,-6.744871,-3.520345,0.79446\H,0,-4.59916,-3.618579,0.80695\C,0
 ,-7.898218,-3.340566,0.024745\H,0,-8.675608,-2.98553,-1.956595\H,0,-6.
 824911,-3.671356,1.867587\H,0,-8.877104,-3.358943,0.496101\\Version=AM
 64L-G16RevA.03\HF=6.1181172\RMSD=6.000e-09\Dipole=-0.9415606,1.1581735
 ,-2.3738624\Quadrupole=7.0064293,-0.5024744,-6.5039549,-2.6896879,5.72
 59992,-0.0148001\PG=C01 [X(C52H60N6O8Os1)]\\@


 If your ship doesn't come in, swim out to it!
                          -- Jonathan Winters
 Job cpu time:       0 days  0 hours  7 minutes 41.4 seconds.
 Elapsed time:       0 days  0 hours  1 minutes 20.7 seconds.
 File lengths (MBytes):  RWF=     19 Int=      0 D2E=      0 Chk=      5 Scr=      1
 Normal termination of Gaussian 16 at Wed May  9 13:09:47 2018.
