 Entering Gaussian System, Link 0=g09
 Initial command:
 /mnt/data/applications/G09/g09/l1.exe "/scratch/Gau-19263.inp" -scrdir="/scratch/"
 Entering Link 1 = /mnt/data/applications/G09/g09/l1.exe PID=     19264.
  
 Copyright (c) 1988,1990,1992,1993,1995,1998,2003,2009,2013,
            Gaussian, Inc.  All Rights Reserved.
  
 This is part of the Gaussian(R) 09 program.  It is based on
 the Gaussian(R) 03 system (copyright 2003, Gaussian, Inc.),
 the Gaussian(R) 98 system (copyright 1998, Gaussian, Inc.),
 the Gaussian(R) 94 system (copyright 1995, Gaussian, Inc.),
 the Gaussian 92(TM) system (copyright 1992, Gaussian, Inc.),
 the Gaussian 90(TM) system (copyright 1990, Gaussian, Inc.),
 the Gaussian 88(TM) system (copyright 1988, Gaussian, Inc.),
 the Gaussian 86(TM) system (copyright 1986, Carnegie Mellon
 University), and the Gaussian 82(TM) system (copyright 1983,
 Carnegie Mellon University). Gaussian is a federally registered
 trademark of Gaussian, Inc.
  
 This software contains proprietary and confidential information,
 including trade secrets, belonging to Gaussian, Inc.
  
 This software is provided under written license and may be
 used, copied, transmitted, or stored only in accord with that
 written license.
  
 The following legend is applicable only to US Government
 contracts under FAR:
  
                    RESTRICTED RIGHTS LEGEND
  
 Use, reproduction and disclosure by the US Government is
 subject to restrictions as set forth in subparagraphs (a)
 and (c) of the Commercial Computer Software - Restricted
 Rights clause in FAR 52.227-19.
  
 Gaussian, Inc.
 340 Quinnipiac St., Bldg. 40, Wallingford CT 06492
  
  
 ---------------------------------------------------------------
 Warning -- This program may not be used in any manner that
 competes with the business of Gaussian, Inc. or will provide
 assistance to any competitor of Gaussian, Inc.  The licensee
 of this program is prohibited from giving any competitor of
 Gaussian, Inc. access to this program.  By using this program,
 the user acknowledges that Gaussian, Inc. is engaged in the
 business of creating and licensing software in the field of
 computational chemistry and represents and warrants to the
 licensee that it is not a competitor of Gaussian, Inc. and that
 it will not use this program in any manner prohibited above.
 ---------------------------------------------------------------
  

 Cite this work as:
 Gaussian 09, Revision D.01,
 M. J. Frisch, G. W. Trucks, H. B. Schlegel, G. E. Scuseria, 
 M. A. Robb, J. R. Cheeseman, G. Scalmani, V. Barone, B. Mennucci, 
 G. A. Petersson, H. Nakatsuji, M. Caricato, X. Li, H. P. Hratchian, 
 A. F. Izmaylov, J. Bloino, G. Zheng, J. L. Sonnenberg, M. Hada, 
 M. Ehara, K. Toyota, R. Fukuda, J. Hasegawa, M. Ishida, T. Nakajima, 
 Y. Honda, O. Kitao, H. Nakai, T. Vreven, J. A. Montgomery, Jr., 
 J. E. Peralta, F. Ogliaro, M. Bearpark, J. J. Heyd, E. Brothers, 
 K. N. Kudin, V. N. Staroverov, T. Keith, R. Kobayashi, J. Normand, 
 K. Raghavachari, A. Rendell, J. C. Burant, S. S. Iyengar, J. Tomasi, 
 M. Cossi, N. Rega, J. M. Millam, M. Klene, J. E. Knox, J. B. Cross, 
 V. Bakken, C. Adamo, J. Jaramillo, R. Gomperts, R. E. Stratmann, 
 O. Yazyev, A. J. Austin, R. Cammi, C. Pomelli, J. W. Ochterski, 
 R. L. Martin, K. Morokuma, V. G. Zakrzewski, G. A. Voth, 
 P. Salvador, J. J. Dannenberg, S. Dapprich, A. D. Daniels, 
 O. Farkas, J. B. Foresman, J. V. Ortiz, J. Cioslowski, 
 and D. J. Fox, Gaussian, Inc., Wallingford CT, 2013.
 
 ******************************************
 Gaussian 09:  EM64L-G09RevD.01 24-Apr-2013
                 7-Feb-2017 
 ******************************************
 %nprocshared=8
 Will use up to    8 processors via shared memory.
 %mem=8000MB
 %chk=I_5
 ----------------------------------------------------------------------
 #p opt=nomicro oniom(B3LYP/6-31G*:external="./sictwo_files/sictwo_g09d
 01") geom=connectivity nosymm scf(maxcyc=100)
 ----------------------------------------------------------------------
 1/14=-1,18=20,19=15,26=1,38=1,52=2,57=2/1,3;
 2/9=110,12=2,15=1,17=6,18=5,40=1/2;
 1/14=-1,18=20,19=15,26=1,38=1,52=2,53=3172/20;
 3/11=9,16=1,25=1,30=1,41=9900000,43=2,71=1/1;
 4/20=17,22=1,23=100,24=3,113=1,114=1/2;
 6/7=2,8=2,9=2,10=2/1;
 7/7=1,30=1,33=-1,44=-1/16;
 1/14=-1,18=20,19=15,26=1,52=2,53=2032/20;
 3/5=1,6=6,7=1,11=2,16=1,25=1,30=1,71=1,74=-5/1,2,3;
 4//1;
 5/5=2,7=100,38=5/2;
 6/7=2,8=2,9=2,10=2,28=1/1;
 7/7=1,30=1,33=-1/1,2,3,16;
 1/14=-1,18=20,19=15,26=1,52=2,53=1022/20;
 3/11=9,16=1,25=1,30=1,41=9900000,43=2,71=1/1;
 4/20=17,22=1,23=100,24=3,113=1,114=2/2;
 6/7=2,8=2,9=2,10=2/1;
 7/7=1,30=1,33=-1,44=-1/16;
 1/14=-1,18=20,19=15,26=1,52=2,53=3015/20;
 7/9=1,44=-1/16;
 1/14=-1,18=20,19=15,26=1,52=2/3(2);
 2/9=110,15=1/2;
 99//99;
 2/9=110,15=1/2;
 1/14=-1,18=20,19=15,26=1,52=2,53=3173/20;
 3/11=9,16=1,25=1,30=1,41=9900000,43=2,71=1/1;
 4/16=2,20=17,22=1,23=100,24=3,113=1,114=1/2;
 7/7=1,30=1,33=-1,44=-1/16;
 1/14=-1,18=20,19=15,26=1,52=2,53=2033/20;
 3/5=1,6=6,7=1,11=2,16=1,25=1,30=1,71=1,74=-5/1,2,3;
 4/5=5,16=3,69=1/1;
 5/5=2,7=100,38=5/2;
 7/7=1,30=1,33=-1/1,2,3,16;
 1/14=-1,18=20,19=15,26=1,52=2,53=1023/20;
 3/11=9,16=1,25=1,30=1,41=9900000,43=2,71=1/1;
 4/16=2,20=17,22=1,23=100,24=3,113=1,114=2/2;
 7/7=1,30=1,33=-1,44=-1/16;
 1/14=-1,18=20,19=15,26=1,52=2,53=3015/20;
 7/9=1,44=-1/16;
 1/14=-1,18=20,19=15,26=1,52=2/3(-16);
 2/9=110,15=1/2;
 99//99;
 Leave Link    1 at Tue Feb  7 16:49:07 2017, MaxMem=  1048576000 cpu:         0.7
 (Enter /mnt/data/applications/G09/g09/l101.exe)
 --------------------------------------
 ONIOM(QM:MM) OPT FREQ with SICTWO V1.0
 --------------------------------------
 Symbolic Z-matrix:
 Charge =  0 Multiplicity = 1 for low   level calculation on real  system.
 Charge =  0 Multiplicity = 1 for high  level calculation on model system.
 Charge =  0 Multiplicity = 1 for low   level calculation on model system.
 C-C_2                0    -2.36842   0.38462   0.       H 
 C-C_3                0    -3.90842   0.38462   0.       H 
 H-H_                 0    -4.26509   0.88902  -0.87365  H 
 H-H_                 0    -4.26509  -0.62419   0.       H 
 H-H_                 0    -4.26509   0.88902   0.87365  H 
 C-C_3                0    -1.60106  -0.93573  -0.19863  H 
 H-H_                 0    -1.80801  -1.59492   0.61841  H 
 H-H_                 0    -1.91129  -1.39428  -1.11426  H 
 C-C_3                0    -0.08937  -0.64736  -0.25533  L    H-H_     6     0.        0. 
 C-C_3                0     0.67586  -1.96331  -0.48837  L 
 H-H_                 0     0.36701  -2.39585  -1.41704  L 
 H-H_                 0     1.72669  -1.7641   -0.51968  L 
 H-H_                 0     0.46557  -2.64432   0.3097   L 
 C-C_3                0     0.20411   0.3285   -1.40996  L 
 H-H_                 0    -0.61954   0.33093  -2.09296  L 
 H-H_                 0     0.34466   1.31382  -1.01718  L 
 H-H_                 0     1.09113   0.01876  -1.92199  L 
 C-C_3                0     0.36363  -0.01891   1.07562  L 
 H-H_                 0    -0.35115  -0.24598   1.8388   L 
 H-H_                 0     1.31805  -0.41644   1.35118  L 
 H-H_                 0     0.43871   1.04235   0.96164  L 
 N-N_2                0    -1.72384   1.49371   0.16685  H 
 C-C_3                0    -1.98204   2.92475   0.38212  H 
 H-H_                 0    -2.55823   3.30981  -0.43313  H 
 H-H_                 0    -2.52407   3.05596   1.2953   H 
 H-H_                 0    -1.05176   3.45013   0.4409   H 
 
 NAtoms=     26 NQM=       26 NQMF=       0 NMMI=      0 NMMIF=      0
                NMic=       0 NMicF=      0.
                    Isotopes and Nuclear Properties:
 (Nuclear quadrupole moments (NQMom) in fm**2, nuclear magnetic moments (NMagM)
  in nuclear magnetons)

  Atom         1           2           3           4           5           6           7           8           9          10
 IAtWgt=          12          12           1           1           1          12           1           1          12          12
 AtmWgt=  12.0000000  12.0000000   1.0078250   1.0078250   1.0078250  12.0000000   1.0078250   1.0078250  12.0000000  12.0000000
 NucSpn=           0           0           1           1           1           0           1           1           0           0
 AtZEff=   0.0000000   0.0000000   0.0000000   0.0000000   0.0000000   0.0000000   0.0000000   0.0000000   0.0000000   0.0000000
 NQMom=    0.0000000   0.0000000   0.0000000   0.0000000   0.0000000   0.0000000   0.0000000   0.0000000   0.0000000   0.0000000
 NMagM=    0.0000000   0.0000000   2.7928460   2.7928460   2.7928460   0.0000000   2.7928460   2.7928460   0.0000000   0.0000000
 AtZNuc=   6.0000000   6.0000000   1.0000000   1.0000000   1.0000000   6.0000000   1.0000000   1.0000000   6.0000000   6.0000000

  Atom        11          12          13          14          15          16          17          18          19          20
 IAtWgt=           1           1           1          12           1           1           1          12           1           1
 AtmWgt=   1.0078250   1.0078250   1.0078250  12.0000000   1.0078250   1.0078250   1.0078250  12.0000000   1.0078250   1.0078250
 NucSpn=           1           1           1           0           1           1           1           0           1           1
 AtZEff=   0.0000000   0.0000000   0.0000000   0.0000000   0.0000000   0.0000000   0.0000000   0.0000000   0.0000000   0.0000000
 NQMom=    0.0000000   0.0000000   0.0000000   0.0000000   0.0000000   0.0000000   0.0000000   0.0000000   0.0000000   0.0000000
 NMagM=    2.7928460   2.7928460   2.7928460   0.0000000   2.7928460   2.7928460   2.7928460   0.0000000   2.7928460   2.7928460
 AtZNuc=   1.0000000   1.0000000   1.0000000   6.0000000   1.0000000   1.0000000   1.0000000   6.0000000   1.0000000   1.0000000

  Atom        21          22          23          24          25          26
 IAtWgt=           1          14          12           1           1           1
 AtmWgt=   1.0078250  14.0030740  12.0000000   1.0078250   1.0078250   1.0078250
 NucSpn=           1           2           0           1           1           1
 AtZEff=   0.0000000   0.0000000   0.0000000   0.0000000   0.0000000   0.0000000
 NQMom=    0.0000000   2.0440000   0.0000000   0.0000000   0.0000000   0.0000000
 NMagM=    2.7928460   0.4037610   0.0000000   2.7928460   2.7928460   2.7928460
 AtZNuc=   1.0000000   7.0000000   6.0000000   1.0000000   1.0000000   1.0000000
 Leave Link  101 at Tue Feb  7 16:49:07 2017, MaxMem=  1048576000 cpu:         3.1
 (Enter /mnt/data/applications/G09/g09/l103.exe)

 GradGradGradGradGradGradGradGradGradGradGradGradGradGradGradGradGradGrad
 Berny optimization.
 Initialization pass.
                           ----------------------------
                           !    Initial Parameters    !
                           ! (Angstroms and Degrees)  !
 --------------------------                            --------------------------
 ! Name  Definition              Value          Derivative Info.                !
 --------------------------------------------------------------------------------
 ! R1    R(1,2)                  1.54           estimate D2E/DX2                !
 ! R2    R(1,6)                  1.54           estimate D2E/DX2                !
 ! R3    R(1,22)                 1.2936         estimate D2E/DX2                !
 ! R4    R(2,3)                  1.07           estimate D2E/DX2                !
 ! R5    R(2,4)                  1.07           estimate D2E/DX2                !
 ! R6    R(2,5)                  1.07           estimate D2E/DX2                !
 ! R7    R(6,7)                  1.07           estimate D2E/DX2                !
 ! R8    R(6,8)                  1.07           estimate D2E/DX2                !
 ! R9    R(6,9)                  1.54           estimate D2E/DX2                !
 ! R10   R(9,10)                 1.54           estimate D2E/DX2                !
 ! R11   R(9,14)                 1.54           estimate D2E/DX2                !
 ! R12   R(9,18)                 1.54           estimate D2E/DX2                !
 ! R13   R(10,11)                1.07           estimate D2E/DX2                !
 ! R14   R(10,12)                1.07           estimate D2E/DX2                !
 ! R15   R(10,13)                1.07           estimate D2E/DX2                !
 ! R16   R(14,15)                1.07           estimate D2E/DX2                !
 ! R17   R(14,16)                1.07           estimate D2E/DX2                !
 ! R18   R(14,17)                1.07           estimate D2E/DX2                !
 ! R19   R(18,19)                1.07           estimate D2E/DX2                !
 ! R20   R(18,20)                1.07           estimate D2E/DX2                !
 ! R21   R(18,21)                1.07           estimate D2E/DX2                !
 ! R22   R(22,23)                1.47           estimate D2E/DX2                !
 ! R23   R(23,24)                1.07           estimate D2E/DX2                !
 ! R24   R(23,25)                1.07           estimate D2E/DX2                !
 ! R25   R(23,26)                1.07           estimate D2E/DX2                !
 ! A1    A(2,1,6)              119.8865         estimate D2E/DX2                !
 ! A2    A(2,1,22)             119.8865         estimate D2E/DX2                !
 ! A3    A(6,1,22)             120.2269         estimate D2E/DX2                !
 ! A4    A(1,2,3)              109.4712         estimate D2E/DX2                !
 ! A5    A(1,2,4)              109.4712         estimate D2E/DX2                !
 ! A6    A(1,2,5)              109.4712         estimate D2E/DX2                !
 ! A7    A(3,2,4)              109.4713         estimate D2E/DX2                !
 ! A8    A(3,2,5)              109.4712         estimate D2E/DX2                !
 ! A9    A(4,2,5)              109.4712         estimate D2E/DX2                !
 ! A10   A(1,6,7)              109.4712         estimate D2E/DX2                !
 ! A11   A(1,6,8)              109.4712         estimate D2E/DX2                !
 ! A12   A(1,6,9)              109.4712         estimate D2E/DX2                !
 ! A13   A(7,6,8)              109.4713         estimate D2E/DX2                !
 ! A14   A(7,6,9)              109.4712         estimate D2E/DX2                !
 ! A15   A(8,6,9)              109.4712         estimate D2E/DX2                !
 ! A16   A(6,9,10)             109.4712         estimate D2E/DX2                !
 ! A17   A(6,9,14)             109.4712         estimate D2E/DX2                !
 ! A18   A(6,9,18)             109.4712         estimate D2E/DX2                !
 ! A19   A(10,9,14)            109.4713         estimate D2E/DX2                !
 ! A20   A(10,9,18)            109.4712         estimate D2E/DX2                !
 ! A21   A(14,9,18)            109.4712         estimate D2E/DX2                !
 ! A22   A(9,10,11)            109.4712         estimate D2E/DX2                !
 ! A23   A(9,10,12)            109.4712         estimate D2E/DX2                !
 ! A24   A(9,10,13)            109.4712         estimate D2E/DX2                !
 ! A25   A(11,10,12)           109.4713         estimate D2E/DX2                !
 ! A26   A(11,10,13)           109.4712         estimate D2E/DX2                !
 ! A27   A(12,10,13)           109.4712         estimate D2E/DX2                !
 ! A28   A(9,14,15)            109.4712         estimate D2E/DX2                !
 ! A29   A(9,14,16)            109.4712         estimate D2E/DX2                !
 ! A30   A(9,14,17)            109.4712         estimate D2E/DX2                !
 ! A31   A(15,14,16)           109.4713         estimate D2E/DX2                !
 ! A32   A(15,14,17)           109.4712         estimate D2E/DX2                !
 ! A33   A(16,14,17)           109.4712         estimate D2E/DX2                !
 ! A34   A(9,18,19)            109.4712         estimate D2E/DX2                !
 ! A35   A(9,18,20)            109.4712         estimate D2E/DX2                !
 ! A36   A(9,18,21)            109.4712         estimate D2E/DX2                !
 ! A37   A(19,18,20)           109.4713         estimate D2E/DX2                !
 ! A38   A(19,18,21)           109.4712         estimate D2E/DX2                !
 ! A39   A(20,18,21)           109.4712         estimate D2E/DX2                !
 ! A40   A(1,22,23)            139.9974         estimate D2E/DX2                !
 ! A41   A(22,23,24)           109.4712         estimate D2E/DX2                !
 ! A42   A(22,23,25)           109.4712         estimate D2E/DX2                !
 ! A43   A(22,23,26)           109.4712         estimate D2E/DX2                !
 ! A44   A(24,23,25)           109.4713         estimate D2E/DX2                !
 ! A45   A(24,23,26)           109.4712         estimate D2E/DX2                !
 ! A46   A(25,23,26)           109.4712         estimate D2E/DX2                !
 ! D1    D(6,1,2,3)           -111.4449         estimate D2E/DX2                !
 ! D2    D(6,1,2,4)              8.5551         estimate D2E/DX2                !
 ! D3    D(6,1,2,5)            128.5551         estimate D2E/DX2                !
 ! D4    D(22,1,2,3)            68.5551         estimate D2E/DX2                !
 ! D5    D(22,1,2,4)          -171.4449         estimate D2E/DX2                !
 ! D6    D(22,1,2,5)           -51.4449         estimate D2E/DX2                !
 ! D7    D(2,1,6,7)            -63.9088         estimate D2E/DX2                !
 ! D8    D(2,1,6,8)             56.0912         estimate D2E/DX2                !
 ! D9    D(2,1,6,9)            176.0912         estimate D2E/DX2                !
 ! D10   D(22,1,6,7)           116.0912         estimate D2E/DX2                !
 ! D11   D(22,1,6,8)          -123.9088         estimate D2E/DX2                !
 ! D12   D(22,1,6,9)            -3.9088         estimate D2E/DX2                !
 ! D13   D(2,1,22,23)            0.0            estimate D2E/DX2                !
 ! D14   D(6,1,22,23)          180.0            estimate D2E/DX2                !
 ! D15   D(1,6,9,10)          -178.6284         estimate D2E/DX2                !
 ! D16   D(1,6,9,14)           -58.6284         estimate D2E/DX2                !
 ! D17   D(1,6,9,18)            61.3716         estimate D2E/DX2                !
 ! D18   D(7,6,9,10)            61.3716         estimate D2E/DX2                !
 ! D19   D(7,6,9,14)          -178.6284         estimate D2E/DX2                !
 ! D20   D(7,6,9,18)           -58.6284         estimate D2E/DX2                !
 ! D21   D(8,6,9,10)           -58.6285         estimate D2E/DX2                !
 ! D22   D(8,6,9,14)            61.3716         estimate D2E/DX2                !
 ! D23   D(8,6,9,18)          -178.6284         estimate D2E/DX2                !
 ! D24   D(6,9,10,11)           60.4648         estimate D2E/DX2                !
 ! D25   D(6,9,10,12)         -179.5352         estimate D2E/DX2                !
 ! D26   D(6,9,10,13)          -59.5352         estimate D2E/DX2                !
 ! D27   D(14,9,10,11)         -59.5352         estimate D2E/DX2                !
 ! D28   D(14,9,10,12)          60.4648         estimate D2E/DX2                !
 ! D29   D(14,9,10,13)        -179.5352         estimate D2E/DX2                !
 ! D30   D(18,9,10,11)        -179.5352         estimate D2E/DX2                !
 ! D31   D(18,9,10,12)         -59.5352         estimate D2E/DX2                !
 ! D32   D(18,9,10,13)          60.4648         estimate D2E/DX2                !
 ! D33   D(6,9,14,15)          -18.5311         estimate D2E/DX2                !
 ! D34   D(6,9,14,16)          101.469          estimate D2E/DX2                !
 ! D35   D(6,9,14,17)         -138.531          estimate D2E/DX2                !
 ! D36   D(10,9,14,15)         101.4689         estimate D2E/DX2                !
 ! D37   D(10,9,14,16)        -138.5311         estimate D2E/DX2                !
 ! D38   D(10,9,14,17)         -18.5311         estimate D2E/DX2                !
 ! D39   D(18,9,14,15)        -138.5311         estimate D2E/DX2                !
 ! D40   D(18,9,14,16)         -18.531          estimate D2E/DX2                !
 ! D41   D(18,9,14,17)         101.469          estimate D2E/DX2                !
 ! D42   D(6,9,18,19)           20.454          estimate D2E/DX2                !
 ! D43   D(6,9,18,20)          140.454          estimate D2E/DX2                !
 ! D44   D(6,9,18,21)          -99.546          estimate D2E/DX2                !
 ! D45   D(10,9,18,19)         -99.546          estimate D2E/DX2                !
 ! D46   D(10,9,18,20)          20.454          estimate D2E/DX2                !
 ! D47   D(10,9,18,21)         140.454          estimate D2E/DX2                !
 ! D48   D(14,9,18,19)         140.4539         estimate D2E/DX2                !
 ! D49   D(14,9,18,20)         -99.546          estimate D2E/DX2                !
 ! D50   D(14,9,18,21)          20.454          estimate D2E/DX2                !
 ! D51   D(1,22,23,24)         -58.8621         estimate D2E/DX2                !
 ! D52   D(1,22,23,25)          61.1379         estimate D2E/DX2                !
 ! D53   D(1,22,23,26)        -178.8621         estimate D2E/DX2                !
 --------------------------------------------------------------------------------
 Trust Radius=3.00D-01 FncErr=1.00D-07 GrdErr=1.00D-07
 Number of steps in this run=    134 maximum allowed number of steps=    156.
 GradGradGradGradGradGradGradGradGradGradGradGradGradGradGradGradGradGrad

 Leave Link  103 at Tue Feb  7 16:49:08 2017, MaxMem=  1048576000 cpu:         0.1
 (Enter /mnt/data/applications/G09/g09/l202.exe)
                          Input orientation:                          
 ---------------------------------------------------------------------
 Center     Atomic      Atomic             Coordinates (Angstroms)
 Number     Number       Type             X           Y           Z
 ---------------------------------------------------------------------
      1          6    10061002       -2.368421    0.384615    0.000000
      2          6    10061003       -3.908421    0.384615    0.000000
      3          1    10011000       -4.265087    0.889018   -0.873651
      4          1    10011000       -4.265087   -0.624190    0.000000
      5          1    10011000       -4.265088    0.889018    0.873651
      6          6    10061003       -1.601064   -0.935730   -0.198625
      7          1    10011000       -1.808014   -1.594917    0.618408
      8          1    10011000       -1.911285   -1.394283   -1.114263
      9          6    10061003       -0.089366   -0.647364   -0.255334
     10          6    10061003        0.675861   -1.963313   -0.488370
     11          1    10011000        0.367010   -2.395848   -1.417039
     12          1    10011000        1.726686   -1.764103   -0.519683
     13          1    10011000        0.465569   -2.644317    0.309697
     14          6    10061003        0.204112    0.328496   -1.409963
     15          1    10011000       -0.619542    0.330934   -2.092963
     16          1    10011000        0.344661    1.313821   -1.017178
     17          1    10011000        1.091126    0.018765   -1.921990
     18          6    10061003        0.363625   -0.018910    1.075622
     19          1    10011000       -0.351146   -0.245981    1.838799
     20          1    10011000        1.318055   -0.416444    1.351176
     21          1    10011000        0.438708    1.042350    0.961645
     22          7    10071002       -1.723841    1.493705    0.166845
     23          6    10061003       -1.982036    2.924750    0.382123
     24          1    10011000       -2.558226    3.309809   -0.433128
     25          1    10011000       -2.524066    3.055958    1.295299
     26          1    10011000       -1.051756    3.450130    0.440899
 ---------------------------------------------------------------------
                    Distance matrix (angstroms):
                    1          2          3          4          5
     1  C    0.000000
     2  C    1.540000   0.000000
     3  H    2.148263   1.070000   0.000000
     4  H    2.148263   1.070000   1.747303   0.000000
     5  H    2.148263   1.070000   1.747303   1.747303   0.000000
     6  C    1.540000   2.665832   3.298846   2.689522   3.402426
     7  H    2.148263   2.951726   3.799129   2.713291   3.503183
     8  H    2.148263   2.897346   3.288121   2.715697   3.834795
     9  C    2.514810   3.964260   4.492152   4.183584   4.590395
    10  C    3.875426   5.173675   5.718147   5.142443   5.865481
    11  H    4.149887   5.293230   5.704555   5.157819   6.123229
    12  H    4.653704   6.053222   6.562446   6.121342   6.699387
    13  H    4.159548   5.329365   6.021950   5.153245   5.931409
    14  C    2.934122   4.347881   4.536029   4.782191   5.050032
    15  H    2.727994   3.898731   3.884351   4.310773   4.733103
    16  H    3.042842   4.470658   4.631505   5.102972   5.000548
    17  H    3.974464   5.368740   5.526788   5.726820   6.104260
    18  C    2.963760   4.423819   5.103820   4.790439   4.721240
    19  H    2.801470   4.053768   4.895360   4.340871   4.187920
    20  H    4.007178   5.457419   6.150249   5.748070   5.753586
    21  H    3.039301   4.500545   5.051486   5.082107   4.707117
    22  N    1.293600   2.455668   2.811799   3.312288   2.706133
    23  C    2.597614   3.210804   3.306584   4.237136   3.098085
    24  H    2.963171   3.250751   2.994606   4.310142   3.237480
    25  H    2.972893   3.275715   3.525780   4.272288   2.811507
    26  H    3.365320   4.213349   4.314259   5.207684   4.131836
                    6          7          8          9         10
     6  C    0.000000
     7  H    1.070000   0.000000
     8  H    1.070000   1.747303   0.000000
     9  C    1.540000   2.148263   2.148263   0.000000
    10  C    2.514809   2.744141   2.721922   1.540000   0.000000
    11  H    2.736749   3.084683   2.507077   2.148263   1.070000
    12  H    3.444300   3.717255   3.704744   2.148263   1.070000
    13  H    2.729218   2.523039   3.039684   2.148263   1.070000
    14  C    2.514809   3.444192   2.744141   1.540000   2.514810
    15  H    2.481197   3.531700   2.367029   2.148263   3.084859
    16  H    3.084859   3.971135   3.525981   2.148263   3.336006
    17  H    3.336006   4.178829   3.415202   2.148263   2.481199
    18  C    2.514810   2.721922   3.444192   1.540000   2.514809
    19  H    2.487799   2.330546   3.531742   2.148263   3.069151
    20  H    3.345563   3.420242   4.178898   2.148263   2.487799
    21  H    3.069152   3.481487   3.971025   2.148263   3.345564
    22  N    2.459837   3.122592   3.164940   2.726522   4.258973
    23  C    3.922463   4.529184   4.571457   4.092500   5.631638
    24  H    4.358411   5.071970   4.796973   4.667558   6.186128
    25  H    4.360884   4.754108   5.097659   4.695404   6.214023
    26  H    4.466150   5.104501   5.160005   4.266191   5.757913
                   11         12         13         14         15
    11  H    0.000000
    12  H    1.747303   0.000000
    13  H    1.747303   1.747303   0.000000
    14  C    2.729219   2.736750   3.444301   0.000000
    15  H    2.977499   3.516984   3.975218   1.070000   0.000000
    16  H    3.731224   3.410441   4.176371   1.070000   1.747303
    17  H    2.570929   2.355635   3.530404   1.070000   1.747303
    18  C    3.444300   2.729218   2.736749   2.514809   3.336006
    19  H    3.967135   3.490633   2.959255   3.345563   3.982916
    20  H    3.533487   2.341639   2.602850   3.069152   4.021809
    21  H    4.181445   3.424821   3.743965   2.487800   3.310080
    22  N    4.691372   4.794869   4.683711   2.749734   2.770965
    23  C    6.088002   6.045926   6.083628   3.838145   3.835404
    24  H    6.486879   6.641727   6.719132   4.180065   3.922657
    25  H    6.740718   6.678026   6.511717   4.711734   4.746923
    26  H    6.296053   5.985873   6.281860   3.840246   4.041862
                   16         17         18         19         20
    16  H    0.000000
    17  H    1.747303   0.000000
    18  C    2.481197   3.084859   0.000000
    19  H    3.327722   4.036556   1.070000   0.000000
    20  H    3.090374   3.309761   1.070000   1.747303   0.000000
    21  H    1.999570   3.128694   1.070000   1.747303   1.747303
    22  N    2.390182   3.802989   2.733385   2.776010   3.782121
    23  C    3.157002   4.816433   3.827297   3.851655   4.795128
    24  H    3.570971   5.134730   4.679093   4.761985   5.665179
    25  H    4.075804   5.713589   4.223958   3.989959   5.179053
    26  H    2.939351   4.685025   3.800054   4.013254   4.625473
                   21         22         23         24         25
    21  H    0.000000
    22  N    2.347775   0.000000
    23  C    3.120782   1.470000   0.000000
    24  H    4.008538   2.086720   1.070000   0.000000
    25  H    3.597773   2.086720   1.070000   1.747303   0.000000
    26  H    2.879247   2.086720   1.070000   1.747303   1.747303
                   26
    26  H    0.000000
 Symmetry turned off by external request.
 Stoichiometry    C8H17N
 Framework group  C1[X(C8H17N)]
 Deg. of freedom    72
 Full point group                 C1      NOp   1
 Rotational constants (GHZ):      2.4092936      1.0991969      0.9184573
 Leave Link  202 at Tue Feb  7 16:49:08 2017, MaxMem=  1048576000 cpu:         0.0
 (Enter /mnt/data/applications/G09/g09/l120.exe)
 ONIOM: Cut between C /H     9 and C     6 factor= 0.723886 0.723886
 ONIOM: saving gridpoint 17
 ONIOM: generating point  3 -- low level on real system.
 Leave Link  120 at Tue Feb  7 16:49:08 2017, MaxMem=  1048576000 cpu:         0.0
 (Enter /mnt/data/applications/G09/g09/l301.exe)
 Standard basis: STO-3G (5D, 7F)
 Ernie: Thresh=  0.10000D-02 Tol=  0.10000D-05 Strict=F.
    62 basis functions,   186 primitive gaussians,    62 cartesian basis functions
    36 alpha electrons       36 beta electrons
       nuclear repulsion energy       491.7973982730 Hartrees.
 IExCor=    0 DFT=F Ex=HF Corr=None ExCW=0 ScaHFX=  1.000000
 ScaDFX=  1.000000  1.000000  1.000000  1.000000 ScalE2=  1.000000  1.000000
 IRadAn=      0 IRanWt=     -1 IRanGd=            0 ICorTp=0 IEmpDi=  4
 NAtoms=   26 NActive=   26 NUniq=   26 SFac= 1.00D+00 NAtFMM=   60 NAOKFM=F Big=F
 Integral buffers will be    131072 words long.
 Raffenetti 1 integral format.
 Two-electron integral symmetry is turned off.
 Leave Link  301 at Tue Feb  7 16:49:08 2017, MaxMem=  1048576000 cpu:         0.4
 (Enter /mnt/data/applications/G09/g09/l402.exe)
 External calculation of energy and first derivatives.
 Running external command "./sictwo_files/sictwo_g09d01 R"
         input file       "/scratch/Gau-19264.EIn"
         output file      "/scratch/Gau-19264.EOu"
         message file     "/scratch/Gau-19264.EMs"
         fchk file        "/scratch/Gau-19264.EFC"
         mat. el file     "/scratch/Gau-19264.EUF"

---------------------------- SICTWO Version 1.0 STARTED -----------------------------

MM calculations started
MM calculations finished ....
Information recovery

---------------------------- SICTWO Version 1.0 FINISHED -----------------------------

 Recovered energy= 0.920989825930E-01 dipole=     -0.757353410275     -0.430019364899     -0.064522576252
 Energy=    9.209898259E-02 NIter=   0.
 Dipole moment=      -0.757353      -0.430019      -0.064523
 Leave Link  402 at Tue Feb  7 16:49:12 2017, MaxMem=  1048576000 cpu:        27.0
 (Enter /mnt/data/applications/G09/g09/l601.exe)
 Leave Link  601 at Tue Feb  7 16:49:12 2017, MaxMem=  1048576000 cpu:         0.2
 (Enter /mnt/data/applications/G09/g09/l716.exe)
 Dipole        =-7.57353410D-01-4.30019365D-01-6.45225763D-02
 Cartesian Forces:  Max     0.045095391 RMS     0.012633600
 Leave Link  716 at Tue Feb  7 16:49:12 2017, MaxMem=  1048576000 cpu:         0.2
 (Enter /mnt/data/applications/G09/g09/l120.exe)
 SvSCFP did not find density file   528.
 ONIOM: saving gridpoint  3
 ONIOM: restoring gridpoint 17
 ONIOM: generating point  2 -- high level on model system.
 Leave Link  120 at Tue Feb  7 16:49:12 2017, MaxMem=  1048576000 cpu:         0.0
 (Enter /mnt/data/applications/G09/g09/l301.exe)
 Standard basis: 6-31G(d) (6D, 7F)
 Ernie: Thresh=  0.10000D-02 Tol=  0.10000D-05 Strict=F.
    93 basis functions,   176 primitive gaussians,    93 cartesian basis functions
    20 alpha electrons       20 beta electrons
       nuclear repulsion energy       174.1253855048 Hartrees.
 IExCor=  402 DFT=T Ex+Corr=B3LYP ExCW=0 ScaHFX=  0.200000
 ScaDFX=  0.800000  0.720000  1.000000  0.810000 ScalE2=  1.000000  1.000000
 IRadAn=      0 IRanWt=     -1 IRanGd=            0 ICorTp=0 IEmpDi=  4
 NAtoms=   26 NActive=   14 NUniq=   14 SFac= 1.00D+00 NAtFMM=   60 NAOKFM=F Big=F
 Integral buffers will be    131072 words long.
 Raffenetti 2 integral format.
 Two-electron integral symmetry is turned off.
 Leave Link  301 at Tue Feb  7 16:49:12 2017, MaxMem=  1048576000 cpu:         0.5
 (Enter /mnt/data/applications/G09/g09/l302.exe)
 NPDir=0 NMtPBC=     1 NCelOv=     1 NCel=       1 NClECP=     1 NCelD=      1
         NCelK=      1 NCelE2=     1 NClLst=     1 CellRange=     0.0.
 One-electron integrals computed using PRISM.
 NBasis=    93 RedAO= T EigKep=  3.94D-03  NBF=    93
 NBsUse=    93 1.00D-06 EigRej= -1.00D+00 NBFU=    93
 Precomputing XC quadrature grid using
 IXCGrd= 4 IRadAn=           0 IRanWt=          -1 IRanGd=           0 AccXCQ= 0.00D+00.
 Generated NRdTot=       0 NPtTot=           0 NUsed=           0 NTot=          32
 NSgBfM=    93    93    93    93    93 MxSgAt=    14 MxSgA2=    14.
 Leave Link  302 at Tue Feb  7 16:49:13 2017, MaxMem=  1048576000 cpu:         2.1
 (Enter /mnt/data/applications/G09/g09/l303.exe)
 DipDrv:  MaxL=1.
 Leave Link  303 at Tue Feb  7 16:49:13 2017, MaxMem=  1048576000 cpu:         0.3
 (Enter /mnt/data/applications/G09/g09/l401.exe)
 ExpMin= 1.61D-01 ExpMax= 4.17D+03 ExpMxC= 6.27D+02 IAcc=1 IRadAn=         1 AccDes= 0.00D+00
 Harris functional with IExCor=  402 and IRadAn=       1 diagonalized for initial guess.
 HarFok:  IExCor=  402 AccDes= 0.00D+00 IRadAn=         1 IDoV= 1 UseB2=F ITyADJ=14
 ICtDFT=  3500011 ScaDFX=  1.000000  1.000000  1.000000  1.000000
 FoFCou: FMM=F IPFlag=           0 FMFlag=      100000 FMFlg1=           0
         NFxFlg=           0 DoJE=T BraDBF=F KetDBF=T FulRan=T
         wScrn=  0.000000 ICntrl=     500 IOpCl=  0 I1Cent=   200000004 NGrid=           0
         NMat0=    1 NMatS0=      1 NMatT0=    0 NMatD0=    1 NMtDS0=    0 NMtDT0=    0
 Symmetry not used in FoFCou.
 Harris En= -212.616254200406    
 JPrj=0 DoOrth=F DoCkMO=F.
 Leave Link  401 at Tue Feb  7 16:49:13 2017, MaxMem=  1048576000 cpu:         2.4
 (Enter /mnt/data/applications/G09/g09/l502.exe)
 Closed shell SCF:
 Using DIIS extrapolation, IDIIS=  1040.
 Two-electron integral symmetry not used.
 Keep R1 ints in memory in canonical form, NReq=10510481.
 IVT=       39327 IEndB=       39327 NGot=  1048576000 MDV=  1038981668
 LenX=  1038981668 LenY=  1038972578
 Requested convergence on RMS density matrix=1.00D-08 within 100 cycles.
 Requested convergence on MAX density matrix=1.00D-06.
 Requested convergence on             energy=1.00D-06.
 No special actions if energy rises.
 FoFCou: FMM=F IPFlag=           0 FMFlag=           0 FMFlg1=           0
         NFxFlg=           0 DoJE=F BraDBF=F KetDBF=F FulRan=T
         wScrn=  0.000000 ICntrl=     600 IOpCl=  0 I1Cent=           0 NGrid=           0
         NMat0=    1 NMatS0=   4371 NMatT0=    0 NMatD0=    1 NMtDS0=    0 NMtDT0=    0
 Symmetry not used in FoFCou.
 Integral accuracy reduced to 1.0D-05 until final iterations.

 Cycle   1  Pass 0  IDiag  1:
 E= -212.368487241767    
 DIIS: error= 5.72D-02 at cycle   1 NSaved=   1.
 NSaved= 1 IEnMin= 1 EnMin= -212.368487241767     IErMin= 1 ErrMin= 5.72D-02
 ErrMax= 5.72D-02  0.00D+00 EMaxC= 1.00D-01 BMatC= 1.81D-01 BMatP= 1.81D-01
 IDIUse=3 WtCom= 4.28D-01 WtEn= 5.72D-01
 Coeff-Com:  0.100D+01
 Coeff-En:   0.100D+01
 Coeff:      0.100D+01
 Gap=     0.158 Goal=   None    Shift=    0.000
 GapD=    0.158 DampG=1.000 DampE=0.500 DampFc=0.5000 IDamp=-1.
 Damping current iteration by 5.00D-01
 RMSDP=1.04D-02 MaxDP=1.36D-01              OVMax= 1.91D-01

 Cycle   2  Pass 0  IDiag  1:
 E= -212.456429819704     Delta-E=       -0.087942577937 Rises=F Damp=T
 DIIS: error= 8.53D-03 at cycle   2 NSaved=   2.
 NSaved= 2 IEnMin= 2 EnMin= -212.456429819704     IErMin= 2 ErrMin= 8.53D-03
 ErrMax= 8.53D-03  0.00D+00 EMaxC= 1.00D-01 BMatC= 9.26D-03 BMatP= 1.81D-01
 IDIUse=3 WtCom= 9.15D-01 WtEn= 8.53D-02
 Coeff-Com:  0.600D-01 0.940D+00
 Coeff-En:   0.787D-01 0.921D+00
 Coeff:      0.616D-01 0.938D+00
 Gap=     0.215 Goal=   None    Shift=    0.000
 RMSDP=2.26D-03 MaxDP=4.03D-02 DE=-8.79D-02 OVMax= 1.62D-01

 Cycle   3  Pass 0  IDiag  1:
 E= -212.548240544524     Delta-E=       -0.091810724820 Rises=F Damp=F
 DIIS: error= 1.04D-02 at cycle   3 NSaved=   3.
 NSaved= 3 IEnMin= 3 EnMin= -212.548240544524     IErMin= 2 ErrMin= 8.53D-03
 ErrMax= 1.04D-02  0.00D+00 EMaxC= 1.00D-01 BMatC= 1.25D-02 BMatP= 9.26D-03
 IDIUse=2 WtCom= 0.00D+00 WtEn= 1.00D+00
 Coeff-En:   0.000D+00 0.000D+00 0.100D+01
 Coeff:      0.000D+00 0.000D+00 0.100D+01
 Gap=     0.176 Goal=   None    Shift=    0.000
 RMSDP=3.33D-03 MaxDP=8.53D-02 DE=-9.18D-02 OVMax= 1.71D-01

 Cycle   4  Pass 0  IDiag  1:
 E= -212.501718589462     Delta-E=        0.046521955062 Rises=F Damp=F
 DIIS: error= 2.63D-02 at cycle   4 NSaved=   4.
 NSaved= 4 IEnMin= 3 EnMin= -212.548240544524     IErMin= 2 ErrMin= 8.53D-03
 ErrMax= 2.63D-02  0.00D+00 EMaxC= 1.00D-01 BMatC= 6.38D-02 BMatP= 9.26D-03
 IDIUse=2 WtCom= 0.00D+00 WtEn= 1.00D+00
 Coeff-En:   0.000D+00 0.000D+00 0.780D+00 0.220D+00
 Coeff:      0.000D+00 0.000D+00 0.780D+00 0.220D+00
 Gap=     0.199 Goal=   None    Shift=    0.000
 RMSDP=1.77D-03 MaxDP=4.16D-02 DE= 4.65D-02 OVMax= 8.61D-02

 Cycle   5  Pass 0  IDiag  1:
 E= -212.555310366781     Delta-E=       -0.053591777319 Rises=F Damp=F
 DIIS: error= 6.80D-03 at cycle   5 NSaved=   5.
 NSaved= 5 IEnMin= 5 EnMin= -212.555310366781     IErMin= 5 ErrMin= 6.80D-03
 ErrMax= 6.80D-03  0.00D+00 EMaxC= 1.00D-01 BMatC= 4.79D-03 BMatP= 9.26D-03
 IDIUse=3 WtCom= 9.32D-01 WtEn= 6.80D-02
 Coeff-Com: -0.189D-02 0.117D-01 0.252D+00-0.131D+00 0.869D+00
 Coeff-En:   0.000D+00 0.000D+00 0.325D+00 0.000D+00 0.675D+00
 Coeff:     -0.176D-02 0.109D-01 0.257D+00-0.122D+00 0.856D+00
 Gap=     0.209 Goal=   None    Shift=    0.000
 RMSDP=6.22D-04 MaxDP=1.66D-02 DE=-5.36D-02 OVMax= 3.20D-02

 Cycle   6  Pass 0  IDiag  1:
 E= -212.559611480258     Delta-E=       -0.004301113477 Rises=F Damp=F
 DIIS: error= 9.65D-05 at cycle   6 NSaved=   6.
 NSaved= 6 IEnMin= 6 EnMin= -212.559611480258     IErMin= 6 ErrMin= 9.65D-05
 ErrMax= 9.65D-05  0.00D+00 EMaxC= 1.00D-01 BMatC= 1.68D-06 BMatP= 4.79D-03
 IDIUse=1 WtCom= 1.00D+00 WtEn= 0.00D+00
 Coeff-Com: -0.545D-03 0.143D-02 0.816D-01-0.444D-01 0.299D+00 0.663D+00
 Coeff:     -0.545D-03 0.143D-02 0.816D-01-0.444D-01 0.299D+00 0.663D+00
 Gap=     0.209 Goal=   None    Shift=    0.000
 RMSDP=1.50D-05 MaxDP=3.63D-04 DE=-4.30D-03 OVMax= 4.47D-04

 Cycle   7  Pass 0  IDiag  1:
 E= -212.559612678582     Delta-E=       -0.000001198324 Rises=F Damp=F
 DIIS: error= 3.93D-05 at cycle   7 NSaved=   7.
 NSaved= 7 IEnMin= 7 EnMin= -212.559612678582     IErMin= 7 ErrMin= 3.93D-05
 ErrMax= 3.93D-05  0.00D+00 EMaxC= 1.00D-01 BMatC= 2.12D-07 BMatP= 1.68D-06
 IDIUse=1 WtCom= 1.00D+00 WtEn= 0.00D+00
 Coeff-Com: -0.369D-04-0.194D-03 0.233D-01-0.122D-01 0.844D-01 0.338D+00
 Coeff-Com:  0.566D+00
 Coeff:     -0.369D-04-0.194D-03 0.233D-01-0.122D-01 0.844D-01 0.338D+00
 Coeff:      0.566D+00
 Gap=     0.209 Goal=   None    Shift=    0.000
 RMSDP=6.55D-06 MaxDP=7.84D-05 DE=-1.20D-06 OVMax= 1.10D-04

 Initial convergence to 1.0D-05 achieved.  Increase integral accuracy.
 Cycle   8  Pass 1  IDiag  1:
 E= -212.559594425569     Delta-E=        0.000018253013 Rises=F Damp=F
 DIIS: error= 8.99D-06 at cycle   1 NSaved=   1.
 NSaved= 1 IEnMin= 1 EnMin= -212.559594425569     IErMin= 1 ErrMin= 8.99D-06
 ErrMax= 8.99D-06  0.00D+00 EMaxC= 1.00D-01 BMatC= 1.74D-08 BMatP= 1.74D-08
 IDIUse=1 WtCom= 1.00D+00 WtEn= 0.00D+00
 Coeff-Com:  0.100D+01
 Coeff:      0.100D+01
 Gap=     0.209 Goal=   None    Shift=    0.000
 RMSDP=6.55D-06 MaxDP=7.84D-05 DE= 1.83D-05 OVMax= 1.04D-04

 Cycle   9  Pass 1  IDiag  1:
 E= -212.559594427597     Delta-E=       -0.000000002028 Rises=F Damp=F
 DIIS: error= 1.42D-05 at cycle   2 NSaved=   2.
 NSaved= 2 IEnMin= 2 EnMin= -212.559594427597     IErMin= 1 ErrMin= 8.99D-06
 ErrMax= 1.42D-05  0.00D+00 EMaxC= 1.00D-01 BMatC= 2.57D-08 BMatP= 1.74D-08
 IDIUse=1 WtCom= 1.00D+00 WtEn= 0.00D+00
 Coeff-Com:  0.563D+00 0.437D+00
 Coeff:      0.563D+00 0.437D+00
 Gap=     0.209 Goal=   None    Shift=    0.000
 RMSDP=1.94D-06 MaxDP=5.45D-05 DE=-2.03D-09 OVMax= 1.05D-04

 Cycle  10  Pass 1  IDiag  1:
 E= -212.559594447125     Delta-E=       -0.000000019527 Rises=F Damp=F
 DIIS: error= 6.60D-06 at cycle   3 NSaved=   3.
 NSaved= 3 IEnMin= 3 EnMin= -212.559594447125     IErMin= 3 ErrMin= 6.60D-06
 ErrMax= 6.60D-06  0.00D+00 EMaxC= 1.00D-01 BMatC= 4.35D-09 BMatP= 1.74D-08
 IDIUse=1 WtCom= 1.00D+00 WtEn= 0.00D+00
 Coeff-Com:  0.109D-01 0.287D+00 0.702D+00
 Coeff:      0.109D-01 0.287D+00 0.702D+00
 Gap=     0.209 Goal=   None    Shift=    0.000
 RMSDP=7.84D-07 MaxDP=1.63D-05 DE=-1.95D-08 OVMax= 3.12D-05

 Cycle  11  Pass 1  IDiag  1:
 E= -212.559594450841     Delta-E=       -0.000000003717 Rises=F Damp=F
 DIIS: error= 1.26D-06 at cycle   4 NSaved=   4.
 NSaved= 4 IEnMin= 4 EnMin= -212.559594450841     IErMin= 4 ErrMin= 1.26D-06
 ErrMax= 1.26D-06  0.00D+00 EMaxC= 1.00D-01 BMatC= 2.26D-10 BMatP= 4.35D-09
 IDIUse=1 WtCom= 1.00D+00 WtEn= 0.00D+00
 Coeff-Com: -0.167D-01 0.135D+00 0.372D+00 0.509D+00
 Coeff:     -0.167D-01 0.135D+00 0.372D+00 0.509D+00
 Gap=     0.209 Goal=   None    Shift=    0.000
 RMSDP=1.89D-07 MaxDP=2.83D-06 DE=-3.72D-09 OVMax= 3.20D-06

 Cycle  12  Pass 1  IDiag  1:
 E= -212.559594451055     Delta-E=       -0.000000000213 Rises=F Damp=F
 DIIS: error= 1.45D-07 at cycle   5 NSaved=   5.
 NSaved= 5 IEnMin= 5 EnMin= -212.559594451055     IErMin= 5 ErrMin= 1.45D-07
 ErrMax= 1.45D-07  0.00D+00 EMaxC= 1.00D-01 BMatC= 4.91D-12 BMatP= 2.26D-10
 IDIUse=1 WtCom= 1.00D+00 WtEn= 0.00D+00
 Coeff-Com: -0.669D-02 0.363D-01 0.100D+00 0.193D+00 0.677D+00
 Coeff:     -0.669D-02 0.363D-01 0.100D+00 0.193D+00 0.677D+00
 Gap=     0.209 Goal=   None    Shift=    0.000
 RMSDP=3.04D-08 MaxDP=5.13D-07 DE=-2.13D-10 OVMax= 6.32D-07

 Cycle  13  Pass 1  IDiag  1:
 E= -212.559594451058     Delta-E=       -0.000000000003 Rises=F Damp=F
 DIIS: error= 5.11D-08 at cycle   6 NSaved=   6.
 NSaved= 6 IEnMin= 6 EnMin= -212.559594451058     IErMin= 6 ErrMin= 5.11D-08
 ErrMax= 5.11D-08  0.00D+00 EMaxC= 1.00D-01 BMatC= 2.03D-13 BMatP= 4.91D-12
 IDIUse=1 WtCom= 1.00D+00 WtEn= 0.00D+00
 Coeff-Com: -0.117D-02 0.497D-02 0.108D-01 0.330D-01 0.186D+00 0.766D+00
 Coeff:     -0.117D-02 0.497D-02 0.108D-01 0.330D-01 0.186D+00 0.766D+00
 Gap=     0.209 Goal=   None    Shift=    0.000
 RMSDP=8.42D-09 MaxDP=9.22D-08 DE=-3.24D-12 OVMax= 1.71D-07

 SCF Done:  E(RB3LYP) =  -212.559594451     A.U. after   13 cycles
            NFock= 13  Conv=0.84D-08     -V/T= 2.0098
 KE= 2.104913847477D+02 PE=-8.405826382979D+02 EE= 2.434062735944D+02
 Leave Link  502 at Tue Feb  7 16:49:16 2017, MaxMem=  1048576000 cpu:        20.1
 (Enter /mnt/data/applications/G09/g09/l601.exe)
 Copying SCF densities to generalized density rwf, IOpCl= 0 IROHF=0.

 **********************************************************************

            Population analysis using the SCF density.

 **********************************************************************

 Alpha  occ. eigenvalues --  -14.29690 -10.23104 -10.19986 -10.17486 -10.17274
 Alpha  occ. eigenvalues --   -0.88137  -0.75455  -0.69739  -0.67441  -0.50958
 Alpha  occ. eigenvalues --   -0.45192  -0.44472  -0.43689  -0.41845  -0.40187
 Alpha  occ. eigenvalues --   -0.40129  -0.37884  -0.35599  -0.26333  -0.19337
 Alpha virt. eigenvalues --    0.01592   0.09701   0.13092   0.15242   0.15385
 Alpha virt. eigenvalues --    0.16241   0.17452   0.18335   0.18840   0.19599
 Alpha virt. eigenvalues --    0.22496   0.23694   0.29050   0.40892   0.46526
 Alpha virt. eigenvalues --    0.50515   0.53794   0.54893   0.57645   0.59248
 Alpha virt. eigenvalues --    0.60522   0.68270   0.70506   0.71235   0.74627
 Alpha virt. eigenvalues --    0.79011   0.82531   0.84052   0.85954   0.88212
 Alpha virt. eigenvalues --    0.91153   0.91840   0.92151   0.93348   0.95094
 Alpha virt. eigenvalues --    0.96684   0.97141   1.01236   1.11781   1.20493
 Alpha virt. eigenvalues --    1.35091   1.38484   1.39751   1.40991   1.52563
 Alpha virt. eigenvalues --    1.59377   1.73015   1.77828   1.81023   1.88499
 Alpha virt. eigenvalues --    1.88984   1.94333   2.02507   2.10352   2.11836
 Alpha virt. eigenvalues --    2.18935   2.19292   2.21188   2.28980   2.29283
 Alpha virt. eigenvalues --    2.34767   2.38535   2.46323   2.48798   2.62673
 Alpha virt. eigenvalues --    2.67213   2.89482   3.10842   3.91674   4.11228
 Alpha virt. eigenvalues --    4.26851   4.32523   4.47323
          Condensed to atoms (all electrons):
               1          2          3          4          5          6
     1  C    4.606981   0.326471  -0.023459  -0.022688  -0.023524   0.347434
     2  C    0.326471   5.287908   0.371158   0.347522   0.373739  -0.104367
     3  H   -0.023459   0.371158   0.537375  -0.028629  -0.026481   0.002578
     4  H   -0.022688   0.347522  -0.028629   0.576338  -0.029018   0.001220
     5  H   -0.023524   0.373739  -0.026481  -0.029018   0.538098   0.003126
     6  C    0.347434  -0.104367   0.002578   0.001220   0.003126   5.234272
     7  H   -0.027220   0.003048  -0.000062   0.000782   0.000006   0.360751
     8  H   -0.029763   0.004025   0.000270  -0.000197  -0.000008   0.360610
     9  H   -0.020411   0.006057  -0.000150  -0.000185  -0.000134   0.344953
    10  N    0.660098  -0.098650  -0.004246   0.006225  -0.006340  -0.065314
    11  C   -0.069133  -0.012645   0.001004   0.000221   0.001718   0.008186
    12  H   -0.001607   0.003819   0.001673  -0.000125  -0.000705  -0.000480
    13  H   -0.001423   0.003689  -0.000568  -0.000102   0.002453  -0.000474
    14  H    0.001586  -0.000411  -0.000004   0.000007  -0.000024   0.000138
               7          8          9         10         11         12
     1  C   -0.027220  -0.029763  -0.020411   0.660098  -0.069133  -0.001607
     2  C    0.003048   0.004025   0.006057  -0.098650  -0.012645   0.003819
     3  H   -0.000062   0.000270  -0.000150  -0.004246   0.001004   0.001673
     4  H    0.000782  -0.000197  -0.000185   0.006225   0.000221  -0.000125
     5  H    0.000006  -0.000008  -0.000134  -0.006340   0.001718  -0.000705
     6  C    0.360751   0.360610   0.344953  -0.065314   0.008186  -0.000480
     7  H    0.557833  -0.033216  -0.022088  -0.000193  -0.000192  -0.000005
     8  H   -0.033216   0.562818  -0.022571   0.000391  -0.000195   0.000038
     9  H   -0.022088  -0.022571   0.537037   0.009193  -0.000455   0.000056
    10  N   -0.000193   0.000391   0.009193   6.734230   0.288010  -0.032093
    11  C   -0.000192  -0.000195  -0.000455   0.288010   4.983773   0.350944
    12  H   -0.000005   0.000038   0.000056  -0.032093   0.350944   0.592942
    13  H    0.000043  -0.000004   0.000049  -0.031945   0.350288  -0.021915
    14  H   -0.000001  -0.000001  -0.000105  -0.052025   0.406522  -0.043314
              13         14
     1  C   -0.001423   0.001586
     2  C    0.003689  -0.000411
     3  H   -0.000568  -0.000004
     4  H   -0.000102   0.000007
     5  H    0.002453  -0.000024
     6  C   -0.000474   0.000138
     7  H    0.000043  -0.000001
     8  H   -0.000004  -0.000001
     9  H    0.000049  -0.000105
    10  N   -0.031945  -0.052025
    11  C    0.350288   0.406522
    12  H   -0.021915  -0.043314
    13  H    0.591542  -0.042895
    14  H   -0.042895   0.562173
 Mulliken charges:
               1
     1  C    0.276659
     2  C   -0.511361
     3  H    0.169542
     4  H    0.148630
     5  H    0.167093
     6  C   -0.492634
     7  H    0.160515
     8  H    0.157803
     9  H    0.168755
    10  C    0.000000
    11  H    0.000000
    12  H    0.000000
    13  H    0.000000
    14  C    0.000000
    15  H    0.000000
    16  H    0.000000
    17  H    0.000000
    18  C    0.000000
    19  H    0.000000
    20  H    0.000000
    21  H    0.000000
    22  N   -0.407342
    23  C   -0.308047
    24  H    0.150771
    25  H    0.151262
    26  H    0.168354
 Sum of Mulliken charges =   0.00000
 Mulliken charges with hydrogens summed into heavy atoms:
               1
     1  C    0.276659
     2  C   -0.026097
     6  C   -0.005561
    10  C    0.000000
    14  C    0.000000
    18  C    0.000000
    22  N   -0.407342
    23  C    0.162341
 Electronic spatial extent (au):  <R**2>=           1424.1672
 Charge=              0.0000 electrons
 Dipole moment (field-independent basis, Debye):
    X=             -1.4024    Y=             -0.0920    Z=             -0.0218  Tot=              1.4056
 Quadrupole moment (field-independent basis, Debye-Ang):
   XX=            -26.9129   YY=            -28.8848   ZZ=            -31.8104
   XY=             -1.4088   XZ=             -0.0694   YZ=              0.4497
 Traceless Quadrupole moment (field-independent basis, Debye-Ang):
   XX=              2.2898   YY=              0.3179   ZZ=             -2.6077
   XY=             -1.4088   XZ=             -0.0694   YZ=              0.4497
 Octapole moment (field-independent basis, Debye-Ang**2):
  XXX=            214.1222  YYY=            -68.7617  ZZZ=             -6.6137  XYY=             68.1944
  XXY=            -21.1598  XXZ=             -2.0595  XZZ=             73.7660  YZZ=            -26.5295
  YYZ=             -0.3725  XYZ=             -0.8148
 Hexadecapole moment (field-independent basis, Debye-Ang**3):
 XXXX=          -1268.7407 YYYY=           -535.2840 ZZZZ=            -59.6822 XXXY=            164.2429
 XXXZ=             14.3439 YYYX=            164.4333 YYYZ=            -30.8395 ZZZX=             14.0942
 ZZZY=            -33.2285 XXYY=           -291.1909 XXZZ=           -216.8692 YYZZ=           -101.6717
 XXYZ=             -9.9997 YYXZ=              2.4901 ZZXY=             57.4266
 N-N= 1.741253855048D+02 E-N=-8.405826344025D+02  KE= 2.104913847477D+02
 No NMR shielding tensors so no spin-rotation constants.
 Leave Link  601 at Tue Feb  7 16:49:16 2017, MaxMem=  1048576000 cpu:         1.1
 (Enter /mnt/data/applications/G09/g09/l701.exe)
 Compute integral first derivatives.
 ... and contract with generalized density number  0.
 Leave Link  701 at Tue Feb  7 16:49:16 2017, MaxMem=  1048576000 cpu:         1.2
 (Enter /mnt/data/applications/G09/g09/l702.exe)
 L702 exits ... SP integral derivatives will be done elsewhere.
 Leave Link  702 at Tue Feb  7 16:49:16 2017, MaxMem=  1048576000 cpu:         0.2
 (Enter /mnt/data/applications/G09/g09/l703.exe)
 Compute integral first derivatives, UseDBF=F ICtDFT=           0.
 Integral derivatives from FoFJK, PRISM(SPDF).
 Calling FoFJK, ICntrl=      2127 FMM=F ISym2X=0 I1Cent= 0 IOpClX= 0 NMat=1 NMatS=1 NMatT=0.
 FoFJK:  IHMeth= 1 ICntrl=    2127 DoSepK=F KAlg= 0 I1Cent=   0 FoldK=F
 IRaf=         0 NMat=   1 IRICut=       1 DoRegI=T DoRafI=F ISym2E= 0.
 FoFCou: FMM=F IPFlag=           0 FMFlag=      100000 FMFlg1=         800
         NFxFlg=           0 DoJE=F BraDBF=F KetDBF=F FulRan=T
         wScrn=  0.000000 ICntrl=    2127 IOpCl=  0 I1Cent=           0 NGrid=           0
         NMat0=    1 NMatS0=      1 NMatT0=    0 NMatD0=    1 NMtDS0=    0 NMtDT0=    0
 Symmetry not used in FoFCou.
 Leave Link  703 at Tue Feb  7 16:49:17 2017, MaxMem=  1048576000 cpu:         6.7
 (Enter /mnt/data/applications/G09/g09/l716.exe)
 Dipole        =-5.51756614D-01-3.61796336D-02-8.57789553D-03
 Cartesian Forces:  Max     0.056860090 RMS     0.013441253
 Leave Link  716 at Tue Feb  7 16:49:17 2017, MaxMem=  1048576000 cpu:         0.2
 (Enter /mnt/data/applications/G09/g09/l120.exe)
 SvSCFP is copying densities from files   528 and   530 to   603.
 ONIOM: saving gridpoint  2
 ONIOM: restoring gridpoint 17
 ONIOM: generating point  1 -- low level on model system.
 Leave Link  120 at Tue Feb  7 16:49:17 2017, MaxMem=  1048576000 cpu:         0.2
 (Enter /mnt/data/applications/G09/g09/l301.exe)
 Standard basis: STO-3G (5D, 7F)
 Ernie: Thresh=  0.10000D-02 Tol=  0.10000D-05 Strict=F.
    34 basis functions,   102 primitive gaussians,    34 cartesian basis functions
    20 alpha electrons       20 beta electrons
       nuclear repulsion energy       174.1253855048 Hartrees.
 IExCor=    0 DFT=F Ex=HF Corr=None ExCW=0 ScaHFX=  1.000000
 ScaDFX=  1.000000  1.000000  1.000000  1.000000 ScalE2=  1.000000  1.000000
 IRadAn=      0 IRanWt=     -1 IRanGd=            0 ICorTp=0 IEmpDi=  4
 NAtoms=   26 NActive=   14 NUniq=   14 SFac= 1.00D+00 NAtFMM=   60 NAOKFM=F Big=F
 Integral buffers will be    131072 words long.
 Raffenetti 1 integral format.
 Two-electron integral symmetry is turned off.
 Leave Link  301 at Tue Feb  7 16:49:18 2017, MaxMem=  1048576000 cpu:         0.4
 (Enter /mnt/data/applications/G09/g09/l402.exe)
 External calculation of energy and first derivatives.
 Running external command "./sictwo_files/sictwo_g09d01 M"
         input file       "/scratch/Gau-19264.EIn"
         output file      "/scratch/Gau-19264.EOu"
         message file     "/scratch/Gau-19264.EMs"
         fchk file        "/scratch/Gau-19264.EFC"
         mat. el file     "/scratch/Gau-19264.EUF"

---------------------------- SICTWO Version 1.0 STARTED -----------------------------

MM calculations started
MM calculations finished ....
Information recovery

---------------------------- SICTWO Version 1.0 FINISHED -----------------------------

 Recovered energy= 0.445679204468E-01 dipole=     -0.757353410275     -0.430019364899     -0.064522576252
 Energy=    4.456792045E-02 NIter=   0.
 Dipole moment=      -0.757353      -0.430019      -0.064523
 Leave Link  402 at Tue Feb  7 16:49:20 2017, MaxMem=  1048576000 cpu:        17.1
 (Enter /mnt/data/applications/G09/g09/l601.exe)
 Leave Link  601 at Tue Feb  7 16:49:20 2017, MaxMem=  1048576000 cpu:         0.2
 (Enter /mnt/data/applications/G09/g09/l716.exe)
 Dipole        =-7.57353410D-01-4.30019365D-01-6.45225763D-02
 Cartesian Forces:  Max     0.045356729 RMS     0.010848245
 Leave Link  716 at Tue Feb  7 16:49:20 2017, MaxMem=  1048576000 cpu:         0.2
 (Enter /mnt/data/applications/G09/g09/l120.exe)
 SvSCFP did not find density file   528.
 ONIOM: saving gridpoint  1
 ONIOM: restoring gridpoint  3
 ONIOM: calculating energy.
 ONIOM: gridpoint  1 method:  low   system:  model energy:     0.044567920447
 ONIOM: gridpoint  2 method:  high  system:  model energy:  -212.559594451058
 ONIOM: gridpoint  3 method:  low   system:  real  energy:     0.092098982593
 ONIOM: extrapolated energy =    -212.512063388912
 ONIOM: calculating first derivatives.
 ONIOM: calculating electric field derivatives.
 ONIOM: Integrating ONIOM file  4 number   619
 ONIOM: Dipole        =-5.51756614D-01-3.61796336D-02-8.57789553D-03
 ONIOM: Dipole moment (Debye):
    X=    -1.4024    Y=    -0.0920    Z=    -0.0218  Tot=     1.4056
 ONIOM: Integrating ONIOM file  5 number   695
 Saving ESP charges from gridpoint 2
 Leave Link  120 at Tue Feb  7 16:49:20 2017, MaxMem=  1048576000 cpu:         0.0
 (Enter /mnt/data/applications/G09/g09/l716.exe)
 Dipole        =-5.51756614D-01-3.61796336D-02-8.57789553D-03
 -------------------------------------------------------------------
 Center     Atomic                   Forces (Hartrees/Bohr)
 Number     Number              X              Y              Z
 -------------------------------------------------------------------
      1        6          -0.010177515    0.058137011    0.009980616
      2        6           0.029296406   -0.015276271   -0.000115910
      3        1          -0.007878560    0.008332373   -0.014139026
      4        1          -0.012061672   -0.014928256   -0.000445968
      5        1          -0.007350572    0.008629174    0.013202534
      6        6           0.009920222    0.036841625    0.002968395
      7        1          -0.008764498   -0.015025093    0.012365051
      8        1          -0.010243240   -0.011724503   -0.014471285
      9        6           0.000481974   -0.003109146   -0.000318023
     10        6          -0.014184762    0.017882197    0.003603492
     11        1          -0.002156142   -0.009070924   -0.012784467
     12        1           0.016000549   -0.001471722   -0.001202036
     13        1          -0.000815974   -0.012257744    0.009938508
     14        6           0.003457433   -0.019132216    0.011200080
     15        1          -0.006712307    0.002432406   -0.015701684
     16        1           0.005978132    0.016170304   -0.006624435
     17        1           0.012671381    0.001216372   -0.009964229
     18        6           0.001584555   -0.015403073   -0.016276475
     19        1          -0.004635266   -0.002353811    0.016313918
     20        1           0.014030101   -0.000978899    0.007937617
     21        1           0.007225875    0.013683674    0.010351977
     22        7           0.008379525   -0.018650518   -0.002290847
     23        6          -0.015449607   -0.049281062   -0.007650879
     24        1          -0.012040759    0.011906425   -0.013026863
     25        1          -0.011495504    0.007232664    0.016418051
     26        1           0.014940308    0.006199097    0.000731719
 -------------------------------------------------------------------
 Cartesian Forces:  Max     0.058137011 RMS     0.014537054
 Leave Link  716 at Tue Feb  7 16:49:20 2017, MaxMem=  1048576000 cpu:         0.2
 (Enter /mnt/data/applications/G09/g09/l103.exe)

 GradGradGradGradGradGradGradGradGradGradGradGradGradGradGradGradGradGrad
 Berny optimization.
 FormGI is forming the generalized inverse of G from B-inverse, IUseBI=4.
 GSVD:  received Info=                   1 from GESDD.
 Internal  Forces:  Max     0.088806516 RMS     0.015617114
 Search for a local minimum.
 Step number   1 out of a maximum of  134
 All quantities printed in internal units (Hartrees-Bohrs-Radians)
 RMS Force = .15617D-01 SwitMx=.10000D-02 MixMth= 1
 Mixed Optimization -- RFO/linear search
 Second derivative matrix not updated -- first step.
 ITU=  0
     Eigenvalues ---    0.00237   0.00237   0.00237   0.00237   0.00237
     Eigenvalues ---    0.00237   0.00647   0.00766   0.03099   0.04356
     Eigenvalues ---    0.04739   0.04739   0.04739   0.05410   0.05720
     Eigenvalues ---    0.05720   0.05720   0.05720   0.05720   0.05720
     Eigenvalues ---    0.07243   0.07243   0.08669   0.10141   0.10141
     Eigenvalues ---    0.12376   0.14387   0.14387   0.16000   0.16000
     Eigenvalues ---    0.16000   0.16000   0.16000   0.16000   0.16000
     Eigenvalues ---    0.16000   0.16000   0.16000   0.16000   0.16000
     Eigenvalues ---    0.16000   0.16000   0.16000   0.21983   0.25000
     Eigenvalues ---    0.25000   0.25000   0.28519   0.28519   0.28519
     Eigenvalues ---    0.28519   0.28519   0.28519   0.35740   0.37230
     Eigenvalues ---    0.37230   0.37230   0.37230   0.37230   0.37230
     Eigenvalues ---    0.37230   0.37230   0.37230   0.37230   0.37230
     Eigenvalues ---    0.37230   0.37230   0.37230   0.37230   0.37230
     Eigenvalues ---    0.37230   0.69002
 RFO step:  Lambda=-9.29606774D-02 EMin= 2.36824077D-03
 Linear search not attempted -- first point.
 Maximum step size (   0.300) exceeded in Quadratic search.
    -- Step size scaled by   0.605
 Iteration  1 RMS(Cart)=  0.23814549 RMS(Int)=  0.01015694
 Iteration  2 RMS(Cart)=  0.04431215 RMS(Int)=  0.00063967
 Iteration  3 RMS(Cart)=  0.00106809 RMS(Int)=  0.00048400
 Iteration  4 RMS(Cart)=  0.00000037 RMS(Int)=  0.00048400
 ITry= 1 IFail=0 DXMaxC= 1.05D+00 DCOld= 1.00D+10 DXMaxT= 3.00D-01 DXLimC= 3.00D+00 Rises=F
 Variable       Old X    -DE/DX   Delta X   Delta X   Delta X     New X
                                 (Linear)    (Quad)   (Total)
    R1        2.91018  -0.00201   0.00000  -0.00321  -0.00321   2.90697
    R2        2.91018   0.01420   0.00000   0.02270   0.02270   2.93288
    R3        2.44455  -0.04507   0.00000  -0.03480  -0.03480   2.40975
    R4        2.02201   0.01810   0.00000   0.02352   0.02352   2.04552
    R5        2.02201   0.01809   0.00000   0.02351   0.02351   2.04552
    R6        2.02201   0.01730   0.00000   0.02248   0.02248   2.04449
    R7        2.02201   0.02039   0.00000   0.02650   0.02650   2.04851
    R8        2.02201   0.02038   0.00000   0.02648   0.02648   2.04849
    R9        2.91018   0.03012   0.00000   0.04816   0.04816   2.95834
   R10        2.91018   0.00370   0.00000   0.00591   0.00591   2.91609
   R11        2.91018   0.01918   0.00000   0.03066   0.03066   2.94084
   R12        2.91018   0.01913   0.00000   0.03059   0.03059   2.94076
   R13        2.02201   0.01539   0.00000   0.01999   0.01999   2.04200
   R14        2.02201   0.01547   0.00000   0.02011   0.02011   2.04211
   R15        2.02201   0.01538   0.00000   0.01998   0.01998   2.04199
   R16        2.02201   0.01520   0.00000   0.01975   0.01975   2.04175
   R17        2.02201   0.01324   0.00000   0.01721   0.01721   2.03921
   R18        2.02201   0.01492   0.00000   0.01939   0.01939   2.04140
   R19        2.02201   0.01523   0.00000   0.01979   0.01979   2.04180
   R20        2.02201   0.01492   0.00000   0.01939   0.01939   2.04140
   R21        2.02201   0.01298   0.00000   0.01686   0.01686   2.03887
   R22        2.77790  -0.01960   0.00000  -0.02631  -0.02631   2.75159
   R23        2.02201   0.02069   0.00000   0.02689   0.02689   2.04890
   R24        2.02201   0.02072   0.00000   0.02692   0.02692   2.04893
   R25        2.02201   0.01607   0.00000   0.02089   0.02089   2.04289
    A1        2.09241  -0.03453   0.00000  -0.06086  -0.06086   2.03155
    A2        2.09241  -0.00552   0.00000  -0.00973  -0.00973   2.08268
    A3        2.09836   0.04004   0.00000   0.07059   0.07059   2.16895
    A4        1.91063   0.00066   0.00000   0.00097   0.00094   1.91158
    A5        1.91063   0.00904   0.00000   0.02253   0.02247   1.93310
    A6        1.91063   0.00044   0.00000   0.00074   0.00070   1.91134
    A7        1.91063  -0.00423   0.00000  -0.00949  -0.00954   1.90109
    A8        1.91063  -0.00236   0.00000  -0.00748  -0.00749   1.90314
    A9        1.91063  -0.00355   0.00000  -0.00727  -0.00734   1.90329
   A10        1.91063  -0.02750   0.00000  -0.05026  -0.05193   1.85871
   A11        1.91063  -0.02774   0.00000  -0.05175  -0.05308   1.85755
   A12        1.91063   0.08881   0.00000   0.18012   0.17992   2.09055
   A13        1.91063   0.00818   0.00000  -0.01233  -0.01543   1.89520
   A14        1.91063  -0.02051   0.00000  -0.03152  -0.03173   1.87890
   A15        1.91063  -0.02124   0.00000  -0.03426  -0.03420   1.87643
   A16        1.91063  -0.00825   0.00000  -0.03284  -0.03242   1.87822
   A17        1.91063   0.00643   0.00000   0.02670   0.02551   1.93614
   A18        1.91063   0.00676   0.00000   0.02742   0.02622   1.93685
   A19        1.91063  -0.00482   0.00000  -0.02248  -0.02204   1.88859
   A20        1.91063  -0.00528   0.00000  -0.02375  -0.02331   1.88732
   A21        1.91063   0.00516   0.00000   0.02495   0.02386   1.93449
   A22        1.91063   0.00355   0.00000   0.00841   0.00837   1.91900
   A23        1.91063   0.00495   0.00000   0.01196   0.01190   1.92254
   A24        1.91063   0.00347   0.00000   0.00822   0.00818   1.91881
   A25        1.91063  -0.00415   0.00000  -0.00979  -0.00984   1.90079
   A26        1.91063  -0.00371   0.00000  -0.00912  -0.00915   1.90148
   A27        1.91063  -0.00411   0.00000  -0.00969  -0.00974   1.90089
   A28        1.91063   0.00702   0.00000   0.01734   0.01703   1.92766
   A29        1.91063   0.01603   0.00000   0.03964   0.03927   1.94990
   A30        1.91063   0.00332   0.00000   0.00604   0.00596   1.91660
   A31        1.91063  -0.00863   0.00000  -0.01684  -0.01742   1.89321
   A32        1.91063  -0.00722   0.00000  -0.01992  -0.01992   1.89071
   A33        1.91063  -0.01052   0.00000  -0.02625  -0.02639   1.88424
   A34        1.91063   0.00657   0.00000   0.01628   0.01596   1.92660
   A35        1.91063   0.00315   0.00000   0.00558   0.00551   1.91614
   A36        1.91063   0.01671   0.00000   0.04129   0.04091   1.95154
   A37        1.91063  -0.00695   0.00000  -0.01934  -0.01933   1.89131
   A38        1.91063  -0.00865   0.00000  -0.01678  -0.01736   1.89327
   A39        1.91063  -0.01082   0.00000  -0.02704  -0.02718   1.88345
   A40        2.44342  -0.06473   0.00000  -0.11411  -0.11411   2.32931
   A41        1.91063   0.00716   0.00000   0.01738   0.01733   1.92796
   A42        1.91063   0.00643   0.00000   0.01555   0.01550   1.92613
   A43        1.91063  -0.00542   0.00000  -0.01341  -0.01338   1.89726
   A44        1.91063  -0.00522   0.00000  -0.01158  -0.01170   1.89893
   A45        1.91063  -0.00148   0.00000  -0.00389  -0.00386   1.90677
   A46        1.91063  -0.00146   0.00000  -0.00405  -0.00402   1.90661
    D1       -1.94508  -0.00101   0.00000  -0.00374  -0.00373  -1.94881
    D2        0.14931  -0.00026   0.00000  -0.00096  -0.00094   0.14837
    D3        2.24371   0.00121   0.00000   0.00438   0.00443   2.24814
    D4        1.19651  -0.00079   0.00000  -0.00239  -0.00244   1.19408
    D5       -2.99228  -0.00003   0.00000   0.00038   0.00035  -2.99192
    D6       -0.89788   0.00143   0.00000   0.00572   0.00572  -0.89216
    D7       -1.11542   0.01194   0.00000   0.03857   0.03720  -1.07822
    D8        0.97898  -0.01187   0.00000  -0.03900  -0.03757   0.94140
    D9        3.07337  -0.00049   0.00000  -0.00234  -0.00236   3.07101
   D10        2.02617   0.01172   0.00000   0.03723   0.03583   2.06201
   D11       -2.16262  -0.01210   0.00000  -0.04034  -0.03894  -2.20156
   D12       -0.06822  -0.00071   0.00000  -0.00369  -0.00373  -0.07195
   D13        0.00000  -0.00001   0.00000  -0.00018  -0.00021  -0.00021
   D14        3.14159   0.00021   0.00000   0.00117   0.00120  -3.14040
   D15       -3.11765   0.00019   0.00000   0.00119   0.00126  -3.11640
   D16       -1.02326  -0.00683   0.00000  -0.03009  -0.03027  -1.05353
   D17        1.07114   0.00757   0.00000   0.03360   0.03392   1.10506
   D18        1.07114  -0.00795   0.00000  -0.02825  -0.02837   1.04277
   D19       -3.11765  -0.01498   0.00000  -0.05954  -0.05989   3.10564
   D20       -1.02326  -0.00057   0.00000   0.00416   0.00430  -1.01896
   D21       -1.02326   0.00759   0.00000   0.02713   0.02716  -0.99610
   D22        1.07114   0.00057   0.00000  -0.00415  -0.00436   1.06677
   D23       -3.11765   0.01497   0.00000   0.05954   0.05983  -3.05782
   D24        1.05531  -0.00020   0.00000  -0.00075  -0.00077   1.05454
   D25       -3.13348  -0.00008   0.00000  -0.00027  -0.00028  -3.13376
   D26       -1.03908   0.00005   0.00000   0.00023   0.00022  -1.03886
   D27       -1.03908  -0.00007   0.00000   0.00042   0.00034  -1.03875
   D28        1.05531   0.00005   0.00000   0.00091   0.00083   1.05614
   D29       -3.13348   0.00017   0.00000   0.00140   0.00133  -3.13215
   D30       -3.13348  -0.00021   0.00000  -0.00183  -0.00174  -3.13522
   D31       -1.03908  -0.00008   0.00000  -0.00134  -0.00125  -1.04033
   D32        1.05531   0.00004   0.00000  -0.00084  -0.00075   1.05456
   D33       -0.32343   0.00558   0.00000   0.02256   0.02258  -0.30085
   D34        1.77097   0.00913   0.00000   0.03682   0.03711   1.80808
   D35       -2.41782   0.00809   0.00000   0.03264   0.03286  -2.38496
   D36        1.77097  -0.00354   0.00000  -0.01508  -0.01525   1.75572
   D37       -2.41782   0.00000   0.00000  -0.00081  -0.00072  -2.41854
   D38       -0.32343  -0.00103   0.00000  -0.00499  -0.00497  -0.32840
   D39       -2.41782  -0.00980   0.00000  -0.04265  -0.04296  -2.46079
   D40       -0.32343  -0.00625   0.00000  -0.02839  -0.02843  -0.35186
   D41        1.77097  -0.00729   0.00000  -0.03257  -0.03268   1.73828
   D42        0.35699  -0.00559   0.00000  -0.02292  -0.02296   0.33403
   D43        2.45138  -0.00814   0.00000  -0.03322  -0.03346   2.41793
   D44       -1.73741  -0.00924   0.00000  -0.03763  -0.03795  -1.77535
   D45       -1.73741   0.00362   0.00000   0.01505   0.01523  -1.72217
   D46        0.35699   0.00106   0.00000   0.00475   0.00474   0.36173
   D47        2.45138  -0.00004   0.00000   0.00034   0.00025   2.45163
   D48        2.45138   0.00960   0.00000   0.04185   0.04217   2.49356
   D49       -1.73741   0.00704   0.00000   0.03155   0.03168  -1.70573
   D50        0.35699   0.00594   0.00000   0.02714   0.02719   0.38418
   D51       -1.02734  -0.00098   0.00000  -0.00332  -0.00344  -1.03078
   D52        1.06706   0.00094   0.00000   0.00267   0.00279   1.06985
   D53       -3.12173  -0.00023   0.00000  -0.00098  -0.00098  -3.12271
         Item               Value     Threshold  Converged?
 Maximum Force            0.088807     0.000450     NO 
 RMS     Force            0.015617     0.000300     NO 
 Maximum Displacement     1.054253     0.001800     NO 
 RMS     Displacement     0.276714     0.001200     NO 
 Predicted change in Energy=-4.478468D-02
 Lowest energy point so far.  Saving SCF results.
 GradGradGradGradGradGradGradGradGradGradGradGradGradGradGradGradGradGrad

 Leave Link  103 at Tue Feb  7 16:49:20 2017, MaxMem=  1048576000 cpu:         0.2
 (Enter /mnt/data/applications/G09/g09/l202.exe)
                          Input orientation:                          
 ---------------------------------------------------------------------
 Center     Atomic      Atomic             Coordinates (Angstroms)
 Number     Number       Type             X           Y           Z
 ---------------------------------------------------------------------
      1          6    10061002       -2.358441    0.568284    0.029940
      2          6    10061003       -3.888969    0.415093    0.010126
      3          1    10011000       -4.289150    0.894761   -0.873876
      4          1    10011000       -4.169811   -0.630232   -0.000075
      5          1    10011000       -4.310605    0.885476    0.888454
      6          6    10061003       -1.532316   -0.729695   -0.173801
      7          1    10011000       -1.782230   -1.386382    0.651675
      8          1    10011000       -1.889410   -1.179254   -1.093292
      9          6    10061003        0.028702   -0.651891   -0.262745
     10          6    10061003        0.554763   -2.082951   -0.500588
     11          1    10011000        0.154235   -2.474159   -1.424809
     12          1    10011000        1.633703   -2.077768   -0.560951
     13          1    10011000        0.252573   -2.726635    0.313040
     14          6    10061003        0.473776    0.235289   -1.461352
     15          1    10011000       -0.342888    0.368401   -2.156127
     16          1    10011000        0.807647    1.208382   -1.135635
     17          1    10011000        1.291026   -0.239343   -1.984598
     18          6    10061003        0.637111   -0.127443    1.070112
     19          1    10011000       -0.072189   -0.239525    1.877425
     20          1    10011000        1.523862   -0.693673    1.315102
     21          1    10011000        0.915833    0.912613    1.001770
     22          7    10071002       -1.848575    1.723234    0.209452
     23          6    10061003       -2.416864    3.047480    0.418205
     24          1    10011000       -3.047853    3.325409   -0.418553
     25          1    10011000       -3.011322    3.064224    1.324810
     26          1    10011000       -1.609642    3.760892    0.508270
 ---------------------------------------------------------------------
                    Distance matrix (angstroms):
                    1          2          3          4          5
     1  C    0.000000
     2  C    1.538303   0.000000
     3  H    2.156643   1.082445   0.000000
     4  H    2.172189   1.082442   1.761640   0.000000
     5  H    2.156061   1.081895   1.762485   1.762577   0.000000
     6  C    1.552012   2.626439   3.275530   2.645081   3.384679
     7  H    2.130562   2.845214   3.716930   2.587873   3.407357
     8  H    2.129678   2.785266   3.179376   2.587813   3.748680
     9  C    2.696839   4.069528   4.627036   4.206777   4.745349
    10  C    3.974577   5.123261   5.698211   4.968149   5.866242
    11  H    4.205508   5.172458   5.603287   4.911956   6.047572
    12  H    4.825760   6.086082   6.634308   6.007555   6.798263
    13  H    4.213553   5.207166   5.928788   4.904124   5.848165
    14  C    3.218119   4.607723   4.844119   4.944427   5.369788
    15  H    2.980151   4.155662   4.182608   4.504572   5.027884
    16  H    3.434007   4.899008   5.113142   5.426333   5.513411
    17  H    4.246085   5.589236   5.801574   5.823390   6.395148
    18  C    3.246433   4.680098   5.393704   4.950212   5.053602
    19  H    3.048394   4.299202   5.161301   4.524176   4.495315
    20  H    4.279773   5.677241   6.411386   5.843940   6.059434
    21  H    3.432766   4.931227   5.532650   5.408127   5.227736
    22  N    1.275185   2.431907   2.795778   3.312226   2.687838
    23  C    2.510095   3.043531   3.131952   4.095527   2.912327
    24  H    2.877182   3.059606   2.766982   4.132918   3.042382
    25  H    2.886634   3.084891   3.342699   4.092239   2.574002
    26  H    3.313947   4.078952   4.159904   5.108312   3.963301
                    6          7          8          9         10
     6  C    0.000000
     7  H    1.084023   0.000000
     8  H    1.084012   1.760482   0.000000
     9  C    1.565484   2.157571   2.155707   0.000000
    10  C    2.508782   2.697119   2.672442   1.543127   0.000000
    11  H    2.729951   3.040550   2.441961   2.164905   1.080579
    12  H    3.462783   3.690132   3.674649   2.167506   1.080640
    13  H    2.722244   2.459954   2.993367   2.164765   1.080573
    14  C    2.571650   3.490596   2.778678   1.556226   2.510750
    15  H    2.559330   3.610363   2.432404   2.182652   3.091231
    16  H    3.186957   4.078571   3.602321   2.197569   3.361563
    17  H    3.389792   4.208389   3.434099   2.174497   2.478560
    18  C    2.572244   2.759208   3.488543   1.556186   2.509559
    19  H    2.565106   2.396244   3.607013   2.181869   3.073472
    20  H    3.399759   3.442416   4.205542   2.174132   2.483139
    21  H    3.173732   3.561950   4.078551   2.198561   3.370586
    22  N    2.502751   3.141604   3.181705   3.064042   4.557108
    23  C    3.924277   4.485131   4.519747   4.486628   5.999672
    24  H    4.335969   4.994814   4.699920   5.030744   6.498917
    25  H    4.339022   4.666012   5.011288   5.056835   6.522457
    26  H    4.542750   5.152163   5.200799   4.769831   6.312919
                   11         12         13         14         15
    11  H    0.000000
    12  H    1.758466   0.000000
    13  H    1.758844   1.758524   0.000000
    14  C    2.728471   2.739779   3.459825   0.000000
    15  H    2.976929   3.526364   4.003823   1.080449   0.000000
    16  H    3.751223   3.436774   4.229789   1.079106   1.752342
    17  H    2.569058   2.350320   3.541771   1.080260   1.751699
    18  C    3.459028   2.730811   2.734378   2.562531   3.408060
    19  H    3.993696   3.497839   2.956093   3.416278   4.088079
    20  H    3.543039   2.333958   2.598699   3.110362   4.081934
    21  H    4.235392   3.449611   3.762763   2.592518   3.442798
    22  N    4.929520   5.212236   4.922081   3.224729   3.114262
    23  C    6.363628   6.605605   6.362182   4.449376   4.255118
    24  H    6.700815   7.150634   6.932191   4.799806   4.368054
    25  H    6.946571   7.181395   6.723893   5.283131   5.148293
    26  H    6.761947   6.764058   6.752330   4.544218   4.495851
                   16         17         18         19         20
    16  H    0.000000
    17  H    1.746511   0.000000
    18  C    2.584344   3.125920   0.000000
    19  H    3.456744   4.095556   1.080473   0.000000
    20  H    3.183848   3.338959   1.080261   1.752095   0.000000
    21  H    2.160482   3.222757   1.078923   1.752250   1.745861
    22  N    3.021564   4.303796   3.216268   3.128915   4.293860
    23  C    4.024199   5.506825   4.453301   4.293161   5.507266
    24  H    4.456556   5.829736   5.264720   5.180236   6.329231
    25  H    4.907389   6.354206   4.854140   4.456304   5.889803
    26  H    3.880853   5.534451   4.525784   4.499076   5.505722
                   21         22         23         24         25
    21  H    0.000000
    22  N    2.987779   0.000000
    23  C    4.000634   1.456076   0.000000
    24  H    4.852804   2.097528   1.084230   0.000000
    25  H    4.489580   2.096248   1.084248   1.763198   0.000000
    26  H    3.838523   2.073266   1.081053   1.765530   1.765443
                   26
    26  H    0.000000
 Symmetry turned off by external request.
 Stoichiometry    C8H17N
 Framework group  C1[X(C8H17N)]
 Deg. of freedom    72
 Full point group                 C1      NOp   1
 Rotational constants (GHZ):      2.4752623      0.9504704      0.8260868
 Leave Link  202 at Tue Feb  7 16:49:21 2017, MaxMem=  1048576000 cpu:         0.0
 (Enter /mnt/data/applications/G09/g09/l120.exe)
 SvSCFP did not find density file   528.
 ONIOM: saving gridpoint 17
 ONIOM: restoring gridpoint  3
 ONIOM: restoring gridpoint  3 on chk file.
 ONIOM: generating point  3 -- low level on real system.
 Leave Link  120 at Tue Feb  7 16:49:21 2017, MaxMem=  1048576000 cpu:         0.0
 (Enter /mnt/data/applications/G09/g09/l301.exe)
 Standard basis: STO-3G (5D, 7F)
 Ernie: Thresh=  0.10000D-02 Tol=  0.10000D-05 Strict=F.
    62 basis functions,   186 primitive gaussians,    62 cartesian basis functions
    36 alpha electrons       36 beta electrons
       nuclear repulsion energy       478.6170472617 Hartrees.
 IExCor=    0 DFT=F Ex=HF Corr=None ExCW=0 ScaHFX=  1.000000
 ScaDFX=  1.000000  1.000000  1.000000  1.000000 ScalE2=  1.000000  1.000000
 IRadAn=      0 IRanWt=     -1 IRanGd=            0 ICorTp=0 IEmpDi=  4
 NAtoms=   26 NActive=   26 NUniq=   26 SFac= 1.00D+00 NAtFMM=   60 NAOKFM=F Big=F
 Integral buffers will be    131072 words long.
 Raffenetti 1 integral format.
 Two-electron integral symmetry is turned off.
 Leave Link  301 at Tue Feb  7 16:49:21 2017, MaxMem=  1048576000 cpu:         0.4
 (Enter /mnt/data/applications/G09/g09/l402.exe)
 External calculation of energy and first derivatives.
 Running external command "./sictwo_files/sictwo_g09d01 R"
         input file       "/scratch/Gau-19264.EIn"
         output file      "/scratch/Gau-19264.EOu"
         message file     "/scratch/Gau-19264.EMs"
         fchk file        "/scratch/Gau-19264.EFC"
         mat. el file     "/scratch/Gau-19264.EUF"

---------------------------- SICTWO Version 1.0 STARTED -----------------------------

MM calculations started
MM calculations finished ....
Information recovery

---------------------------- SICTWO Version 1.0 FINISHED -----------------------------

 Recovered energy= 0.673369728146E-01 dipole=     -0.778992079140     -0.533884975451     -0.081440081001
 Energy=    6.733697281E-02 NIter=   0.
 Dipole moment=      -0.778992      -0.533885      -0.081440
 Leave Link  402 at Tue Feb  7 16:49:24 2017, MaxMem=  1048576000 cpu:        22.7
 (Enter /mnt/data/applications/G09/g09/l716.exe)
 Dipole        =-7.78992079D-01-5.33884975D-01-8.14400810D-02
 Cartesian Forces:  Max     0.037974170 RMS     0.008872395
[...]
 ! R4    R(2,3)                  1.0972         -DE/DX =    0.0                 !
 ! R5    R(2,4)                  1.0932         -DE/DX =    0.0                 !
 ! R6    R(2,5)                  1.0977         -DE/DX =    0.0                 !
 ! R7    R(6,7)                  1.1021         -DE/DX =    0.0                 !
 ! R8    R(6,8)                  1.1022         -DE/DX =    0.0                 !
 ! R9    R(6,9)                  1.5432         -DE/DX =    0.0                 !
 ! R10   R(9,10)                 1.5448         -DE/DX =    0.0                 !
 ! R11   R(9,14)                 1.5376         -DE/DX =    0.0                 !
 ! R12   R(9,18)                 1.5376         -DE/DX =    0.0                 !
 ! R13   R(10,11)                1.096          -DE/DX =    0.0                 !
 ! R14   R(10,12)                1.096          -DE/DX =    0.0                 !
 ! R15   R(10,13)                1.096          -DE/DX =    0.0                 !
 ! R16   R(14,15)                1.0958         -DE/DX =    0.0                 !
 ! R17   R(14,16)                1.0935         -DE/DX =    0.0                 !
 ! R18   R(14,17)                1.0963         -DE/DX =    0.0                 !
 ! R19   R(18,19)                1.0958         -DE/DX =    0.0                 !
 ! R20   R(18,20)                1.0963         -DE/DX =    0.0                 !
 ! R21   R(18,21)                1.0935         -DE/DX =    0.0                 !
 ! R22   R(22,23)                1.4561         -DE/DX =    0.0                 !
 ! R23   R(23,24)                1.1006         -DE/DX =    0.0                 !
 ! R24   R(23,25)                1.1005         -DE/DX =    0.0                 !
 ! R25   R(23,26)                1.0938         -DE/DX =    0.0                 !
 ! A1    A(2,1,6)              113.1243         -DE/DX =    0.0                 !
 ! A2    A(2,1,22)             123.8951         -DE/DX =    0.0                 !
 ! A3    A(6,1,22)             122.9806         -DE/DX =    0.0                 !
 ! A4    A(1,2,3)              110.7859         -DE/DX =    0.0                 !
 ! A5    A(1,2,4)              112.3026         -DE/DX =    0.0                 !
 ! A6    A(1,2,5)              110.7001         -DE/DX =    0.0                 !
 ! A7    A(3,2,4)              108.1405         -DE/DX =    0.0                 !
 ! A8    A(3,2,5)              106.7035         -DE/DX =    0.0                 !
 ! A9    A(4,2,5)              107.9917         -DE/DX =    0.0                 !
 ! A10   A(1,6,7)              106.4922         -DE/DX =    0.0                 !
 ! A11   A(1,6,8)              106.4916         -DE/DX =    0.0                 !
 ! A12   A(1,6,9)              120.1951         -DE/DX =    0.0                 !
 ! A13   A(7,6,8)              104.1519         -DE/DX =    0.0                 !
 ! A14   A(7,6,9)              109.1663         -DE/DX =    0.0                 !
 ! A15   A(8,6,9)              109.1756         -DE/DX =    0.0                 !
 ! A16   A(6,9,10)             107.7212         -DE/DX =    0.0                 !
 ! A17   A(6,9,14)             111.5948         -DE/DX =    0.0                 !
 ! A18   A(6,9,18)             111.5672         -DE/DX =    0.0                 !
 ! A19   A(10,9,14)            107.837          -DE/DX =    0.0                 !
 ! A20   A(10,9,18)            107.8515         -DE/DX =    0.0                 !
 ! A21   A(14,9,18)            110.0948         -DE/DX =    0.0                 !
 ! A22   A(9,10,11)            111.2047         -DE/DX =    0.0                 !
 ! A23   A(9,10,12)            111.3063         -DE/DX =    0.0                 !
 ! A24   A(9,10,13)            111.2091         -DE/DX =    0.0                 !
 ! A25   A(11,10,12)           107.596          -DE/DX =    0.0                 !
 ! A26   A(11,10,13)           107.751          -DE/DX =    0.0                 !
 ! A27   A(12,10,13)           107.5908         -DE/DX =    0.0                 !
 ! A28   A(9,14,15)            111.0799         -DE/DX =    0.0                 !
 ! A29   A(9,14,16)            112.3167         -DE/DX =    0.0                 !
 ! A30   A(9,14,17)            110.957          -DE/DX =    0.0                 !
 ! A31   A(15,14,16)           107.8018         -DE/DX =    0.0                 !
 ! A32   A(15,14,17)           107.5556         -DE/DX =    0.0                 !
 ! A33   A(16,14,17)           106.9006         -DE/DX =    0.0                 !
 ! A34   A(9,18,19)            111.0786         -DE/DX =    0.0                 !
 ! A35   A(9,18,20)            110.9609         -DE/DX =    0.0                 !
 ! A36   A(9,18,21)            112.3025         -DE/DX =    0.0                 !
 ! A37   A(19,18,20)           107.5592         -DE/DX =    0.0                 !
 ! A38   A(19,18,21)           107.7975         -DE/DX =    0.0                 !
 ! A39   A(20,18,21)           106.914          -DE/DX =    0.0                 !
 ! A40   A(1,22,23)            119.0841         -DE/DX =    0.0                 !
 ! A41   A(22,23,24)           112.02           -DE/DX =    0.0                 !
 ! A42   A(22,23,25)           112.6018         -DE/DX =    0.0                 !
 ! A43   A(22,23,26)           109.0782         -DE/DX =    0.0                 !
 ! A44   A(24,23,25)           107.1898         -DE/DX =    0.0                 !
 ! A45   A(24,23,26)           107.807          -DE/DX =    0.0                 !
 ! A46   A(25,23,26)           107.9546         -DE/DX =    0.0                 !
 ! D1    D(6,1,2,3)           -122.7947         -DE/DX =    0.0                 !
 ! D2    D(6,1,2,4)             -1.7539         -DE/DX =    0.0                 !
 ! D3    D(6,1,2,5)            119.0359         -DE/DX =    0.0                 !
 ! D4    D(22,1,2,3)            57.1293         -DE/DX =    0.0                 !
 ! D5    D(22,1,2,4)           178.1702         -DE/DX =    0.0                 !
 ! D6    D(22,1,2,5)           -61.0401         -DE/DX =    0.0                 !
 ! D7    D(2,1,6,7)            -54.5395         -DE/DX =    0.0                 !
 ! D8    D(2,1,6,8)             56.1666         -DE/DX =    0.0                 !
 ! D9    D(2,1,6,9)           -179.1803         -DE/DX =    0.0                 !
 ! D10   D(22,1,6,7)           125.5356         -DE/DX =    0.0                 !
 ! D11   D(22,1,6,8)          -123.7582         -DE/DX =    0.0                 !
 ! D12   D(22,1,6,9)             0.8949         -DE/DX =    0.0                 !
 ! D13   D(2,1,22,23)           -0.0346         -DE/DX =    0.0                 !
 ! D14   D(6,1,22,23)          179.8821         -DE/DX =    0.0                 !
 ! D15   D(1,6,9,10)           179.7629         -DE/DX =    0.0                 !
 ! D16   D(1,6,9,14)           -62.0515         -DE/DX =    0.0                 !
 ! D17   D(1,6,9,18)            61.5756         -DE/DX =    0.0                 !
 ! D18   D(7,6,9,10)            56.3973         -DE/DX =    0.0                 !
 ! D19   D(7,6,9,14)           174.5829         -DE/DX =    0.0                 !
 ! D20   D(7,6,9,18)           -61.79           -DE/DX =    0.0                 !
 ! D21   D(8,6,9,10)           -56.8636         -DE/DX =    0.0                 !
 ! D22   D(8,6,9,14)            61.322          -DE/DX =    0.0                 !
 ! D23   D(8,6,9,18)          -175.051          -DE/DX =    0.0                 !
 ! D24   D(6,9,10,11)           60.0296         -DE/DX =    0.0                 !
 ! D25   D(6,9,10,12)          179.9872         -DE/DX =    0.0                 !
 ! D26   D(6,9,10,13)          -60.0589         -DE/DX =    0.0                 !
 ! D27   D(14,9,10,11)         -60.5483         -DE/DX =    0.0                 !
 ! D28   D(14,9,10,12)          59.4093         -DE/DX =    0.0                 !
 ! D29   D(14,9,10,13)         179.3633         -DE/DX =    0.0                 !
 ! D30   D(18,9,10,11)        -179.4174         -DE/DX =    0.0                 !
 ! D31   D(18,9,10,12)         -59.4598         -DE/DX =    0.0                 !
 ! D32   D(18,9,10,13)          60.4941         -DE/DX =    0.0                 !
 ! D33   D(6,9,14,15)          -53.54           -DE/DX =    0.0                 !
 ! D34   D(6,9,14,16)           67.284          -DE/DX =    0.0                 !
 ! D35   D(6,9,14,17)         -173.1305         -DE/DX =    0.0                 !
 ! D36   D(10,9,14,15)          64.5762         -DE/DX =    0.0                 !
 ! D37   D(10,9,14,16)        -174.5998         -DE/DX =    0.0                 !
 ! D38   D(10,9,14,17)         -55.0143         -DE/DX =    0.0                 !
 ! D39   D(18,9,14,15)        -177.9964         -DE/DX =    0.0                 !
 ! D40   D(18,9,14,16)         -57.1724         -DE/DX =    0.0                 !
 ! D41   D(18,9,14,17)          62.4131         -DE/DX =    0.0                 !
 ! D42   D(6,9,18,19)           53.61           -DE/DX =    0.0                 !
 ! D43   D(6,9,18,20)          173.2067         -DE/DX =    0.0                 !
 ! D44   D(6,9,18,21)          -67.1977         -DE/DX =    0.0                 !
 ! D45   D(10,9,18,19)         -64.4992         -DE/DX =    0.0                 !
 ! D46   D(10,9,18,20)          55.0975         -DE/DX =    0.0                 !
 ! D47   D(10,9,18,21)         174.6931         -DE/DX =    0.0                 !
 ! D48   D(14,9,18,19)         178.0823         -DE/DX =    0.0                 !
 ! D49   D(14,9,18,20)         -62.321          -DE/DX =    0.0                 !
 ! D50   D(14,9,18,21)          57.2746         -DE/DX =    0.0                 !
 ! D51   D(1,22,23,24)         -63.4604         -DE/DX =    0.0                 !
 ! D52   D(1,22,23,25)          57.4487         -DE/DX =    0.0                 !
 ! D53   D(1,22,23,26)         177.2698         -DE/DX =    0.0                 !
 --------------------------------------------------------------------------------
 GradGradGradGradGradGradGradGradGradGradGradGradGradGradGradGradGradGrad

 Largest change from initial coordinates is atom   15       0.845 Angstoms.
 Leave Link  103 at Tue Feb  7 16:52:38 2017, MaxMem=  1048576000 cpu:         0.2
 (Enter /mnt/data/applications/G09/g09/l202.exe)
                          Input orientation:                          
 ---------------------------------------------------------------------
 Center     Atomic      Atomic             Coordinates (Angstroms)
 Number     Number       Type             X           Y           Z
 ---------------------------------------------------------------------
      1          6    10061002       -2.271407    0.679984    0.029526
      2          6    10061003       -3.785511    0.512358    0.093013
      3          1    10011000       -4.278305    1.135057   -0.664182
      4          1    10011000       -4.095140   -0.524173   -0.064664
      5          1    10011000       -4.171265    0.836853    1.068108
      6          6    10061003       -1.530725   -0.637371   -0.196101
      7          1    10011000       -1.865384   -1.324451    0.597984
      8          1    10011000       -1.942412   -1.073372   -1.120846
      9          6    10061003        0.010662   -0.658684   -0.268126
     10          6    10061003        0.450589   -2.122002   -0.495479
     11          1    10011000        0.035508   -2.520360   -1.428327
     12          1    10011000        1.541797   -2.204929   -0.556326
     13          1    10011000        0.114374   -2.768820    0.322919
     14          6    10061003        0.533745    0.178912   -1.446709
     15          1    10011000        0.065096   -0.129413   -2.388005
     16          1    10011000        0.344112    1.247531   -1.313148
     17          1    10011000        1.617381    0.059515   -1.562171
     18          6    10061003        0.644656   -0.174712    1.046409
     19          1    10011000        0.257071   -0.738976    1.902053
     20          1    10011000        1.732841   -0.306537    1.028835
     21          1    10011000        0.455663    0.886197    1.232376
     22          7    10071002       -1.674913    1.799155    0.149527
     23          6    10061003       -2.465579    3.003640    0.359808
     24          1    10011000       -3.122731    3.220488   -0.495971
     25          1    10011000       -3.105308    2.939078    1.252977
     26          1    10011000       -1.791851    3.855615    0.488499
 ---------------------------------------------------------------------
                    Distance matrix (angstroms):
                    1          2          3          4          5
     1  C    0.000000
     2  C    1.524677   0.000000
     3  H    2.171627   1.097244   0.000000
     4  H    2.187434   1.093220   1.773702   0.000000
     5  H    2.170880   1.097685   1.761026   1.772388   0.000000
     6  C    1.528051   2.547454   3.302998   2.570275   3.277806
     7  H    2.122677   2.704764   3.669391   2.459950   3.195205
     8  H    2.122699   2.717537   3.246859   2.459955   3.661730
     9  C    2.662417   3.989071   4.665790   4.113040   4.637959
    10  C    3.941575   5.023018   5.744504   4.837593   5.706239
    11  H    4.205876   5.109994   5.705696   4.786083   5.932959
    12  H    4.817309   6.015438   6.711238   5.902688   6.673103
    13  H    4.203841   5.101773   5.959048   4.786300   5.650035
    14  C    3.209240   4.597597   4.968137   4.881696   5.375343
    15  H    3.458153   4.625418   4.841031   4.781350   5.552039
    16  H    2.994298   4.423974   4.669105   4.940101   5.121295
    17  H    4.247488   5.668858   6.059892   5.934317   6.405549
    18  C    3.204368   4.583383   5.373747   4.880806   4.921060
    19  H    3.451522   4.602274   5.537797   4.780780   4.773768
    20  H    4.243329   5.656727   6.409241   5.933672   6.013930
    21  H    2.987688   4.407432   5.105812   4.937739   4.630106
    22  N    1.273872   2.472583   2.807276   3.361731   2.828709
    23  C    2.355030   2.831940   2.797523   3.909106   2.847107
    24  H    2.730395   2.849587   2.390119   3.892826   3.037677
    25  H    2.701061   2.774376   2.881998   3.835369   2.364274
    26  H    3.244266   3.912602   3.861678   4.979325   3.887220
                    6          7          8          9         10
     6  C    0.000000
     7  H    1.102110   0.000000
     8  H    1.102151   1.738779   0.000000
     9  C    1.543216   2.170931   2.171081   0.000000
    10  C    2.493865   2.682439   2.686478   1.544838   0.000000
    11  H    2.741736   3.024818   2.469916   2.193745   1.095986
    12  H    3.468053   3.703587   3.706591   2.195064   1.096045
    13  H    2.742045   2.466031   3.031398   2.193802   1.095988
    14  C    2.548014   3.492376   2.793878   1.537609   2.491176
    15  H    2.758461   3.751133   2.554768   2.185629   2.775008
    16  H    2.883688   3.892221   3.263703   2.199298   3.468958
    17  H    3.501767   4.325655   3.761693   2.184471   2.694115
    18  C    2.547580   2.797014   3.492493   1.537589   2.491389
    19  H    2.758403   2.558944   3.753327   2.185599   2.774593
    20  H    3.501540   3.764174   4.326275   2.184495   2.695110
    21  H    2.882281   3.267518   3.889515   2.199134   3.469116
    22  N    2.465139   3.161377   3.152272   3.009413   4.506580
    23  C    3.799993   4.375995   4.368989   4.465275   5.958838
    24  H    4.184194   4.840880   4.496760   4.991797   6.427348
    25  H    4.167748   4.488218   4.804906   4.996690   6.427755
    26  H    4.552338   5.181744   5.187251   4.919393   6.459772
                   11         12         13         14         15
    11  H    0.000000
    12  H    1.768837   0.000000
    13  H    1.770541   1.768779   0.000000
    14  C    2.744931   2.737087   3.463608   0.000000
    15  H    2.576525   3.137428   3.783914   1.095780   0.000000
    16  H    3.782261   3.731850   4.342876   1.093501   1.768938
    17  H    3.029190   2.478940   3.716461   1.096292   1.768413
    18  C    3.463732   2.737774   2.744820   2.520514   3.483266
    19  H    3.783364   3.137382   2.575712   3.483285   4.337397
    20  H    3.717471   2.480550   3.029949   2.793172   3.806250
    21  H    4.342867   3.732854   3.781896   2.771975   3.780365
    22  N    4.906462   5.184413   4.908973   3.170383   3.631263
    23  C    6.321980   6.635326   6.322880   4.498726   4.875532
    24  H    6.618239   7.155180   6.857204   4.850247   4.996385
    25  H    6.845406   7.164493   6.619023   5.305613   5.720476
    26  H    6.904094   6.995360   6.895234   4.761467   5.253853
                   16         17         18         19         20
    16  H    0.000000
    17  H    1.759150   0.000000
    18  C    2.771391   2.793877   0.000000
    19  H    3.780383   3.806426   1.095784   0.000000
    20  H    3.135056   2.619282   1.096282   1.768449   0.000000
    21  H    2.573460   3.137274   1.093539   1.768924   1.759325
    22  N    2.553462   4.098226   3.175051   3.639508   4.101208
    23  C    3.711746   5.388176   4.499655   4.878372   5.388098
    24  H    4.071773   5.796309   5.300898   5.731573   6.192052
    25  H    4.620046   6.206508   4.878584   5.025432   5.830261
    26  H    3.822351   5.498953   4.742506   5.225560   5.480778
                   21         22         23         24         25
    21  H    0.000000
    22  N    2.558400   0.000000
    23  C    3.711953   1.456075   0.000000
    24  H    4.608796   2.129091   1.100559   0.000000
    25  H    4.110384   2.136131   1.100533   1.771529   0.000000
    26  H    3.797646   2.087487   1.093769   1.773079   1.774721
                   26
    26  H    0.000000
 Symmetry turned off by external request.
 Stoichiometry    C8H17N
 Framework group  C1[X(C8H17N)]
 Deg. of freedom    72
 Full point group                 C1      NOp   1
 Rotational constants (GHZ):      2.6052303      0.9568326      0.8410575
 Leave Link  202 at Tue Feb  7 16:52:38 2017, MaxMem=  1048576000 cpu:         0.0
 (Enter /mnt/data/applications/G09/g09/l9999.exe)
 1\1\GINC-KIMIK2126\FOpt\ONIOM(B3LYP/6-31G(d):External='./sictwo_files/
 sictwo_g09d01')\Mixed\C8H17N1\IFUNES\07-Feb-2017\0\\#p opt=nomicro oni
 om(B3LYP/6-31G*:external="./sictwo_files/sictwo_g09d01") geom=connecti
 vity nosymm scf(maxcyc=100)\\ONIOM(QM:MM) OPT FREQ with SICTWO V1.0\\0
 ,1\C,-2.27140683,0.6799840505,0.0295258532\C,-3.7855107167,0.512358145
 6,0.0930130344\H,-4.2783047418,1.1350572526,-0.6641821888\H,-4.0951399
 874,-0.5241734256,-0.0646635574\H,-4.1712651851,0.836853292,1.06810767
 4\C,-1.5307250858,-0.6373706664,-0.1961009278\H,-1.8653842863,-1.32445
 0533,0.5979838976\H,-1.9424121271,-1.0733719435,-1.1208462837\C,0.0106
 615147,-0.6586840387,-0.2681261926\C,0.4505887718,-2.1220018324,-0.495
 4787131\H,0.0355082642,-2.5203596768,-1.4283265689\H,1.5417966167,-2.2
 049288742,-0.5563264276\H,0.1143744417,-2.7688202175,0.322919248\C,0.5
 337448777,0.178912133,-1.4467092316\H,0.065095913,-0.1294131844,-2.388
 0046904\H,0.3441115946,1.2475305164,-1.3131479454\H,1.6173814913,0.059
 5152572,-1.5621714562\C,0.6446556752,-0.1747115311,1.0464090062\H,0.25
 70710565,-0.7389756293,1.9020528758\H,1.7328411831,-0.3065366824,1.028
 8346129\H,0.4556630542,0.8861967741,1.2323759454\N,-1.6749127332,1.799
 1554566,0.1495267107\C,-2.4655786049,3.0036399843,0.3598076904\H,-3.12
 27307507,3.2204877406,-0.4959710234\H,-3.1053075378,2.9390782654,1.252
 9773883\H,-1.7918508081,3.8556148773,0.4884985702\\Version=EM64L-G09Re
 vD.01\HF=0.0305294\RMSD=3.261e-09\RMSF=7.225e-06\Dipole=-0.7360309,-0.
 294718,-0.0011308\PG=C01 [X(C8H17N1)]\\@


 THE ONLY DIFFERENCE BETWEEN ECCENTRICS AND JOGGERS
 IS THAT JOGGERS WEAR SWEATBANDS WHEN THEY RUN IN THE RAIN.
 Job cpu time:       0 days  0 hours 23 minutes 37.2 seconds.
 File lengths (MBytes):  RWF=      8 Int=      0 D2E=      0 Chk=      4 Scr=      1
 Normal termination of Gaussian 09 at Tue Feb  7 16:52:38 2017.
