 Entering Gaussian System, Link 0=g09
 Initial command:
 /mnt/data/applications/G09/g09/l1.exe "/scratch/Gau-25761.inp" -scrdir="/scratch/"
 Entering Link 1 = /mnt/data/applications/G09/g09/l1.exe PID=     25762.
  
 Copyright (c) 1988,1990,1992,1993,1995,1998,2003,2009,2013,
            Gaussian, Inc.  All Rights Reserved.
  
 This is part of the Gaussian(R) 09 program.  It is based on
 the Gaussian(R) 03 system (copyright 2003, Gaussian, Inc.),
 the Gaussian(R) 98 system (copyright 1998, Gaussian, Inc.),
 the Gaussian(R) 94 system (copyright 1995, Gaussian, Inc.),
 the Gaussian 92(TM) system (copyright 1992, Gaussian, Inc.),
 the Gaussian 90(TM) system (copyright 1990, Gaussian, Inc.),
 the Gaussian 88(TM) system (copyright 1988, Gaussian, Inc.),
 the Gaussian 86(TM) system (copyright 1986, Carnegie Mellon
 University), and the Gaussian 82(TM) system (copyright 1983,
 Carnegie Mellon University). Gaussian is a federally registered
 trademark of Gaussian, Inc.
  
 This software contains proprietary and confidential information,
 including trade secrets, belonging to Gaussian, Inc.
  
 This software is provided under written license and may be
 used, copied, transmitted, or stored only in accord with that
 written license.
  
 The following legend is applicable only to US Government
 contracts under FAR:
  
                    RESTRICTED RIGHTS LEGEND
  
 Use, reproduction and disclosure by the US Government is
 subject to restrictions as set forth in subparagraphs (a)
 and (c) of the Commercial Computer Software - Restricted
 Rights clause in FAR 52.227-19.
  
 Gaussian, Inc.
 340 Quinnipiac St., Bldg. 40, Wallingford CT 06492
  
  
 ---------------------------------------------------------------
 Warning -- This program may not be used in any manner that
 competes with the business of Gaussian, Inc. or will provide
 assistance to any competitor of Gaussian, Inc.  The licensee
 of this program is prohibited from giving any competitor of
 Gaussian, Inc. access to this program.  By using this program,
 the user acknowledges that Gaussian, Inc. is engaged in the
 business of creating and licensing software in the field of
 computational chemistry and represents and warrants to the
 licensee that it is not a competitor of Gaussian, Inc. and that
 it will not use this program in any manner prohibited above.
 ---------------------------------------------------------------
  

 Cite this work as:
 Gaussian 09, Revision D.01,
 M. J. Frisch, G. W. Trucks, H. B. Schlegel, G. E. Scuseria, 
 M. A. Robb, J. R. Cheeseman, G. Scalmani, V. Barone, B. Mennucci, 
 G. A. Petersson, H. Nakatsuji, M. Caricato, X. Li, H. P. Hratchian, 
 A. F. Izmaylov, J. Bloino, G. Zheng, J. L. Sonnenberg, M. Hada, 
 M. Ehara, K. Toyota, R. Fukuda, J. Hasegawa, M. Ishida, T. Nakajima, 
 Y. Honda, O. Kitao, H. Nakai, T. Vreven, J. A. Montgomery, Jr., 
 J. E. Peralta, F. Ogliaro, M. Bearpark, J. J. Heyd, E. Brothers, 
 K. N. Kudin, V. N. Staroverov, T. Keith, R. Kobayashi, J. Normand, 
 K. Raghavachari, A. Rendell, J. C. Burant, S. S. Iyengar, J. Tomasi, 
 M. Cossi, N. Rega, J. M. Millam, M. Klene, J. E. Knox, J. B. Cross, 
 V. Bakken, C. Adamo, J. Jaramillo, R. Gomperts, R. E. Stratmann, 
 O. Yazyev, A. J. Austin, R. Cammi, C. Pomelli, J. W. Ochterski, 
 R. L. Martin, K. Morokuma, V. G. Zakrzewski, G. A. Voth, 
 P. Salvador, J. J. Dannenberg, S. Dapprich, A. D. Daniels, 
 O. Farkas, J. B. Foresman, J. V. Ortiz, J. Cioslowski, 
 and D. J. Fox, Gaussian, Inc., Wallingford CT, 2013.
 
 ******************************************
 Gaussian 09:  EM64L-G09RevD.01 24-Apr-2013
                 7-Feb-2017 
 ******************************************
 %nprocshared=8
 Will use up to    8 processors via shared memory.
 %mem=8000MB
 %chk=A_5_freq_UFF
 ----------------------------------------------------------------------
 #p opt=nomicro freq oniom(B3LYP/6-31G*:UFF) geom=connectivity nosymm s
 cf(maxcyc=100)
 ----------------------------------------------------------------------
 1/14=-1,18=20,19=15,38=1,52=2,56=1,57=2,61=3,64=2/1,3;
 2/9=110,12=2,15=1,17=6,18=5,40=1/2;
 1/14=-1,18=20,19=15,38=1,52=2,53=3172,61=3,64=2/20;
 3/5=30,11=9,16=1,25=1,30=1,41=10200000,43=2,71=1/1;
 4/20=10,22=1,23=100,24=3/2;
 7/7=1,30=1,33=-1,44=-1/16;
 1/14=-1,18=20,19=15,26=1,52=2,53=2032,61=3/20;
 3/5=1,6=6,7=1,11=2,16=1,25=1,30=1,71=1,74=-5/1,2,3;
 4//1;
 5/5=2,7=100,38=5/2;
 6/7=2,8=2,9=2,10=2,28=1/1;
 7/7=1,30=1,33=-1/1,2,3,16;
 1/14=-1,18=20,19=15,52=2,53=1022,61=3,64=2/20;
 3/5=30,11=9,16=1,25=1,30=1,41=10200000,43=2,71=1/1;
 4/20=10,22=1,23=100,24=3/2;
 7/7=1,30=1,33=-1,44=-1/16;
 1/14=-1,18=20,19=15,52=2,53=3015,61=3,64=2/20;
 7/9=1,44=-1/16;
 1/14=-1,18=20,19=15,52=2,61=3,64=2/3(2);
 2/9=110,15=1/2;
 99//99;
 2/9=110,15=1/2;
 1/14=-1,18=20,19=15,52=2,53=3173,61=3,64=2/20;
 3/5=30,11=9,16=1,25=1,30=1,41=10200000,43=2,71=1/1;
 4/16=2,20=10,22=1,23=100,24=3/2;
 7/7=1,30=1,33=-1,44=-1/16;
 1/14=-1,18=20,19=15,26=1,52=2,53=2033,61=3/20;
 3/5=1,6=6,7=1,11=2,16=1,25=1,30=1,71=1,74=-5/1,2,3;
 4/5=5,16=3,69=1/1;
 5/5=2,7=100,38=5/2;
 7/7=1,30=1,33=-1/1,2,3,16;
 1/14=-1,18=20,19=15,52=2,53=1023,61=3,64=2/20;
 3/5=30,11=9,16=1,25=1,30=1,41=10200000,43=2,71=1/1;
 4/16=2,20=10,22=1,23=100,24=3/2;
 7/7=1,30=1,33=-1,44=-1/16;
 1/14=-1,18=20,19=15,52=2,53=3015,61=3,64=2/20;
 7/9=1,44=-1/16;
 1/14=-1,18=20,19=15,52=2,61=3,64=2/3(-16);
 2/9=110,15=1/2;
 99//99;
 Leave Link    1 at Tue Feb  7 16:57:32 2017, MaxMem=  1048576000 cpu:         0.8
 (Enter /mnt/data/applications/G09/g09/l101.exe)
 --------------------------------------
 ONIOM(QM:MM) OPT FREQ with SICTWO V1.0
 --------------------------------------
 Symbolic Z-matrix:
 Charge =  0 Multiplicity = 1 for low   level calculation on real  system.
 Charge =  0 Multiplicity = 1 for high  level calculation on model system.
 Charge =  0 Multiplicity = 1 for low   level calculation on model system.
 C-C_3                0     0.44534  -2.95547   0.       H 
 H-H_                 0     0.802    -3.96428   0.       H 
 H-H_                 0     0.80202  -2.45107  -0.87365  H 
 H-H_                 0    -0.62466  -2.95545   0.       H 
 C-C_3                0     0.95869  -2.22951   1.2574   L    H-H_     1     0.        0. 
 C-C_3                0     2.49869  -2.22955   1.25742  L 
 H-H_                 0     2.85537  -1.72684   0.3828   L 
 H-H_                 0     2.85536  -1.72348   2.1301   L 
 H-H_                 0     2.85532  -3.23837   1.25937  L 
 C-C_3                0     0.44539  -0.77757   1.25739  L 
 H-H_                 0     0.80191  -0.27323   2.13114  L 
 H-H_                 0     0.80221  -0.2731    0.38384  L 
 H-H_                 0    -0.62461  -0.77757   1.25721  L 
 C-C_3                0     0.44532  -2.95545   2.51481  L 
 H-H_                 0     0.80213  -2.45115   3.38846  L 
 H-H_                 0    -0.62468  -2.95528   2.51488  L 
 H-H_                 0     0.80183  -3.96431   2.51474  L 
 
 NAtoms=     17 NQM=        5 NQMF=       0 NMMI=     12 NMMIF=      0
                NMic=       0 NMicF=      0.
                    Isotopes and Nuclear Properties:
 (Nuclear quadrupole moments (NQMom) in fm**2, nuclear magnetic moments (NMagM)
  in nuclear magnetons)

  Atom         1           2           3           4           5           6           7           8           9          10
 IAtWgt=          12           1           1           1          12          12           1           1           1          12
 AtmWgt=  12.0000000   1.0078250   1.0078250   1.0078250  12.0000000  12.0000000   1.0078250   1.0078250   1.0078250  12.0000000
 NucSpn=           0           1           1           1           0           0           1           1           1           0
 AtZEff=   0.0000000   0.0000000   0.0000000   0.0000000   0.0000000   0.0000000   0.0000000   0.0000000   0.0000000   0.0000000
 NQMom=    0.0000000   0.0000000   0.0000000   0.0000000   0.0000000   0.0000000   0.0000000   0.0000000   0.0000000   0.0000000
 NMagM=    0.0000000   2.7928460   2.7928460   2.7928460   0.0000000   0.0000000   2.7928460   2.7928460   2.7928460   0.0000000
 AtZNuc=   6.0000000   1.0000000   1.0000000   1.0000000   6.0000000   6.0000000   1.0000000   1.0000000   1.0000000   6.0000000

  Atom        11          12          13          14          15          16          17
 IAtWgt=           1           1           1          12           1           1           1
 AtmWgt=   1.0078250   1.0078250   1.0078250  12.0000000   1.0078250   1.0078250   1.0078250
 NucSpn=           1           1           1           0           1           1           1
 AtZEff=   0.0000000   0.0000000   0.0000000   0.0000000   0.0000000   0.0000000   0.0000000
 NQMom=    0.0000000   0.0000000   0.0000000   0.0000000   0.0000000   0.0000000   0.0000000
 NMagM=    2.7928460   2.7928460   2.7928460   0.0000000   2.7928460   2.7928460   2.7928460
 AtZNuc=   1.0000000   1.0000000   1.0000000   6.0000000   1.0000000   1.0000000   1.0000000
 Generating MM parameters.
 Include all MM classes

 MM sanity checks:
 All charges sum to:                0.00000000
 Charges of atoms sum to:           0.00000000
 Layer 1 (S) has      5 atoms and charge   0.00000000 sum=   0.00000000
 Layer 2 (R) adds    12 atoms and charge   0.00000000 sum=   0.00000000
 MMInit generated parameter data with length LenPar=        2686.
 Leave Link  101 at Tue Feb  7 16:57:32 2017, MaxMem=  1048576000 cpu:         3.1
 (Enter /mnt/data/applications/G09/g09/l103.exe)

 GradGradGradGradGradGradGradGradGradGradGradGradGradGradGradGradGradGrad
 Berny optimization.
 Initialization pass.
                           ----------------------------
                           !    Initial Parameters    !
                           ! (Angstroms and Degrees)  !
 --------------------------                            --------------------------
 ! Name  Definition              Value          Derivative Info.                !
 --------------------------------------------------------------------------------
 ! R1    R(1,2)                  1.07           estimate D2E/DX2                !
 ! R2    R(1,3)                  1.07           estimate D2E/DX2                !
 ! R3    R(1,4)                  1.07           estimate D2E/DX2                !
 ! R4    R(1,5)                  1.54           estimate D2E/DX2                !
 ! R5    R(5,6)                  1.54           estimate D2E/DX2                !
 ! R6    R(5,10)                 1.54           estimate D2E/DX2                !
 ! R7    R(5,14)                 1.54           estimate D2E/DX2                !
 ! R8    R(6,7)                  1.07           estimate D2E/DX2                !
 ! R9    R(6,8)                  1.07           estimate D2E/DX2                !
 ! R10   R(6,9)                  1.07           estimate D2E/DX2                !
 ! R11   R(10,11)                1.07           estimate D2E/DX2                !
 ! R12   R(10,12)                1.07           estimate D2E/DX2                !
 ! R13   R(10,13)                1.07           estimate D2E/DX2                !
 ! R14   R(14,15)                1.07           estimate D2E/DX2                !
 ! R15   R(14,16)                1.07           estimate D2E/DX2                !
 ! R16   R(14,17)                1.07           estimate D2E/DX2                !
 ! A1    A(2,1,3)              109.4712         estimate D2E/DX2                !
 ! A2    A(2,1,4)              109.4712         estimate D2E/DX2                !
 ! A3    A(2,1,5)              109.4712         estimate D2E/DX2                !
 ! A4    A(3,1,4)              109.4712         estimate D2E/DX2                !
 ! A5    A(3,1,5)              109.4713         estimate D2E/DX2                !
 ! A6    A(4,1,5)              109.4712         estimate D2E/DX2                !
 ! A7    A(1,5,6)              109.4712         estimate D2E/DX2                !
 ! A8    A(1,5,10)             109.4712         estimate D2E/DX2                !
 ! A9    A(1,5,14)             109.4712         estimate D2E/DX2                !
 ! A10   A(6,5,10)             109.4713         estimate D2E/DX2                !
 ! A11   A(6,5,14)             109.4712         estimate D2E/DX2                !
 ! A12   A(10,5,14)            109.4712         estimate D2E/DX2                !
 ! A13   A(5,6,7)              109.4712         estimate D2E/DX2                !
 ! A14   A(5,6,8)              109.4712         estimate D2E/DX2                !
 ! A15   A(5,6,9)              109.4712         estimate D2E/DX2                !
 ! A16   A(7,6,8)              109.4713         estimate D2E/DX2                !
 ! A17   A(7,6,9)              109.4712         estimate D2E/DX2                !
 ! A18   A(8,6,9)              109.4712         estimate D2E/DX2                !
 ! A19   A(5,10,11)            109.4709         estimate D2E/DX2                !
 ! A20   A(5,10,12)            109.4731         estimate D2E/DX2                !
 ! A21   A(5,10,13)            109.4696         estimate D2E/DX2                !
 ! A22   A(11,10,12)           109.4713         estimate D2E/DX2                !
 ! A23   A(11,10,13)           109.4712         estimate D2E/DX2                !
 ! A24   A(12,10,13)           109.4712         estimate D2E/DX2                !
 ! A25   A(5,14,15)            109.4712         estimate D2E/DX2                !
 ! A26   A(5,14,16)            109.4712         estimate D2E/DX2                !
 ! A27   A(5,14,17)            109.4712         estimate D2E/DX2                !
 ! A28   A(15,14,16)           109.4713         estimate D2E/DX2                !
 ! A29   A(15,14,17)           109.4712         estimate D2E/DX2                !
 ! A30   A(16,14,17)           109.4712         estimate D2E/DX2                !
 ! D1    D(2,1,5,6)             59.9989         estimate D2E/DX2                !
 ! D2    D(2,1,5,10)           179.9989         estimate D2E/DX2                !
 ! D3    D(2,1,5,14)           -60.0011         estimate D2E/DX2                !
 ! D4    D(3,1,5,6)            -60.0011         estimate D2E/DX2                !
 ! D5    D(3,1,5,10)            59.9989         estimate D2E/DX2                !
 ! D6    D(3,1,5,14)           179.9989         estimate D2E/DX2                !
 ! D7    D(4,1,5,6)            179.9989         estimate D2E/DX2                !
 ! D8    D(4,1,5,10)           -60.0011         estimate D2E/DX2                !
 ! D9    D(4,1,5,14)            59.9989         estimate D2E/DX2                !
 ! D10   D(1,5,6,7)             59.89           estimate D2E/DX2                !
 ! D11   D(1,5,6,8)            179.89           estimate D2E/DX2                !
 ! D12   D(1,5,6,9)            -60.11           estimate D2E/DX2                !
 ! D13   D(10,5,6,7)           -60.11           estimate D2E/DX2                !
 ! D14   D(10,5,6,8)            59.89           estimate D2E/DX2                !
 ! D15   D(10,5,6,9)           179.89           estimate D2E/DX2                !
 ! D16   D(14,5,6,7)           179.89           estimate D2E/DX2                !
 ! D17   D(14,5,6,8)           -60.11           estimate D2E/DX2                !
 ! D18   D(14,5,6,9)            59.89           estimate D2E/DX2                !
 ! D19   D(1,5,10,11)          179.9891         estimate D2E/DX2                !
 ! D20   D(1,5,10,12)          -60.01           estimate D2E/DX2                !
 ! D21   D(1,5,10,13)           59.9902         estimate D2E/DX2                !
 ! D22   D(6,5,10,11)          -60.011          estimate D2E/DX2                !
 ! D23   D(6,5,10,12)           59.99           estimate D2E/DX2                !
 ! D24   D(6,5,10,13)          179.9902         estimate D2E/DX2                !
 ! D25   D(14,5,10,11)          59.9891         estimate D2E/DX2                !
 ! D26   D(14,5,10,12)         179.99           estimate D2E/DX2                !
 ! D27   D(14,5,10,13)         -60.0098         estimate D2E/DX2                !
 ! D28   D(1,5,14,15)          179.9908         estimate D2E/DX2                !
 ! D29   D(1,5,14,16)          -60.0092         estimate D2E/DX2                !
 ! D30   D(1,5,14,17)           59.9908         estimate D2E/DX2                !
 ! D31   D(6,5,14,15)           59.9908         estimate D2E/DX2                !
 ! D32   D(6,5,14,16)          179.9908         estimate D2E/DX2                !
 ! D33   D(6,5,14,17)          -60.0092         estimate D2E/DX2                !
 ! D34   D(10,5,14,15)         -60.0092         estimate D2E/DX2                !
 ! D35   D(10,5,14,16)          59.9908         estimate D2E/DX2                !
 ! D36   D(10,5,14,17)         179.9908         estimate D2E/DX2                !
 --------------------------------------------------------------------------------
 Trust Radius=3.00D-01 FncErr=1.00D-07 GrdErr=1.00D-07
 Number of steps in this run=     92 maximum allowed number of steps=    102.
 GradGradGradGradGradGradGradGradGradGradGradGradGradGradGradGradGradGrad

 Leave Link  103 at Tue Feb  7 16:57:33 2017, MaxMem=  1048576000 cpu:         0.1
 (Enter /mnt/data/applications/G09/g09/l202.exe)
                          Input orientation:                          
 ---------------------------------------------------------------------
 Center     Atomic      Atomic             Coordinates (Angstroms)
 Number     Number       Type             X           Y           Z
 ---------------------------------------------------------------------
      1          6    10061003        0.445344   -2.955466    0.000000
      2          1    10011000        0.801999   -3.964276    0.000000
      3          1    10011000        0.802017   -2.451067   -0.873652
      4          1    10011000       -0.624656   -2.955452    0.000000
      5          6    10061003        0.958686   -2.229509    1.257405
      6          6    10061003        2.498686   -2.229553    1.257419
      7          1    10011000        2.855375   -1.726844    0.382800
      8          1    10011000        2.855359   -1.723478    2.130100
      9          1    10011000        2.855325   -3.238366    1.259365
     10          6    10061003        0.445393   -0.777569    1.257391
     11          1    10011000        0.801911   -0.273231    2.131141
     12          1    10011000        0.802208   -0.273102    0.383838
     13          1    10011000       -0.624607   -0.777569    1.257209
     14          6    10061003        0.445322   -2.955450    2.514810
     15          1    10011000        0.802127   -2.451145    3.388461
     16          1    10011000       -0.624678   -2.955280    2.514881
     17          1    10011000        0.801828   -3.964312    2.514738
 ---------------------------------------------------------------------
                    Distance matrix (angstroms):
                    1          2          3          4          5
     1  C    0.000000
     2  H    1.070000   0.000000
     3  H    1.070000   1.747302   0.000000
     4  H    1.070000   1.747303   1.747303   0.000000
     5  C    1.540000   2.148263   2.148263   2.148263   0.000000
     6  C    2.514809   2.732968   2.732987   3.444314   1.540000
     7  H    2.732086   3.060880   2.513851   3.710340   2.148263
     8  H    3.444313   3.711441   3.710542   4.262111   2.148263
     9  H    2.733869   2.515769   3.063605   3.711645   2.148263
    10  C    2.514809   3.444314   2.732969   2.732986   1.540000
    11  H    3.444311   4.262109   3.711030   3.710952   2.148259
    12  H    2.733086   3.711077   2.514918   3.062397   2.148286
    13  H    2.732875   3.710913   3.062094   2.514707   2.148243
    14  C    2.514810   2.732986   3.444315   2.732969   1.540000
    15  H    3.444314   3.710961   4.262112   3.711024   2.148263
    16  H    2.733052   3.062369   3.711043   2.514881   2.148263
    17  H    2.732904   2.514738   3.710943   3.062118   2.148263
                    6          7          8          9         10
     6  C    0.000000
     7  H    1.070000   0.000000
     8  H    1.070000   1.747303   0.000000
     9  H    1.070000   1.747303   1.747303   0.000000
    10  C    2.514810   2.733870   2.732087   3.444314   0.000000
    11  H    2.733062   3.063723   2.513934   3.710597   1.070000
    12  H    2.732925   2.515722   3.060792   3.711419   1.070000
    13  H    3.444302   3.711601   3.710370   4.262095   1.070000
    14  C    2.514809   3.444313   2.733869   2.732087   2.514809
    15  H    2.732903   3.711393   2.515698   3.060782   2.733052
    16  H    3.444314   4.262111   3.711611   3.710375   2.732903
    17  H    2.733052   3.710590   3.063703   2.513923   3.444314
                   11         12         13         14         15
    11  H    0.000000
    12  H    1.747303   0.000000
    13  H    1.747303   1.747303   0.000000
    14  C    2.732884   3.444329   2.733033   0.000000
    15  H    2.514789   3.711015   3.062460   1.070000   0.000000
    16  H    3.061993   3.710988   2.514789   1.070000   1.747303
    17  H    3.710961   4.262132   3.710988   1.070000   1.747303
                   16         17
    16  H    0.000000
    17  H    1.747303   0.000000
 Symmetry turned off by external request.
 This structure is nearly, but not quite of a higher symmetry.
 Consider Symm=Loose if the higher symmetry is desired.
 This structure is nearly, but not quite of a higher symmetry.
 Consider Symm=Loose if the higher symmetry is desired.
 Stoichiometry    C5H12
 Framework group  C1[X(C5H12)]
 Deg. of freedom    45
 Full point group                 C1      NOp   1
 Rotational constants (GHZ):      4.4684131      4.4684119      4.4684101
 Leave Link  202 at Tue Feb  7 16:57:33 2017, MaxMem=  1048576000 cpu:         0.0
 (Enter /mnt/data/applications/G09/g09/l120.exe)
 ONIOM: Cut between C /H     5 and C     1 factor= 0.723886 0.723886
 ONIOM: saving gridpoint 17
 ONIOM: generating point  3 -- low level on real system.
 Leave Link  120 at Tue Feb  7 16:57:33 2017, MaxMem=  1048576000 cpu:         0.0
 (Enter /mnt/data/applications/G09/g09/l301.exe)
 Standard basis: Dummy (5D, 7F)
    17 basis functions,    17 primitive gaussians,    17 cartesian basis functions
    11 alpha electrons       11 beta electrons
       nuclear repulsion energy        53.7110908300 Hartrees.
 IExCor=    0 DFT=F Ex=HF Corr=None ExCW=0 ScaHFX=  1.000000
 ScaDFX=  1.000000  1.000000  1.000000  1.000000 ScalE2=  1.000000  1.000000
 IRadAn=      0 IRanWt=     -1 IRanGd=            0 ICorTp=0 IEmpDi=  4
 NAtoms=   17 NActive=   17 NUniq=   17 SFac= 1.00D+00 NAtFMM=   60 NAOKFM=F Big=F
 Integral buffers will be    131072 words long.
 Raffenetti 1 integral format.
 Two-electron integral symmetry is turned off.
 Leave Link  301 at Tue Feb  7 16:57:33 2017, MaxMem=  1048576000 cpu:         0.4
 (Enter /mnt/data/applications/G09/g09/l402.exe)
 UFF calculation of energy and first derivatives.
 Energy per function type:
 Direct Coulomb + vdW (small)                           0.008869287
 Direct Coulomb (large)                                 0.000000000
 Direct vdW (large)                                  1125.650631446
 Non-direct Coulomb + vdW (small)                       0.000000000
 Non-direct Coulomb (large)                             0.000000000
 Non-direct vdW (large)                             -1125.650631446
 Harmonic stretch III                                   0.011335994
 UFF 3-term bend                                        0.000000000
 UFF torsion w/ sp3 V                                   0.000000028
 Energy per function class:
        Coulomb               0.000000000
    Vanderwaals               0.008869287
     Stretching               0.011335994
        Bending               0.000000000
        Torsion               0.000000028
 Energy=    2.020530931E-02 NIter=   0.
 Dipole moment=       0.000000       0.000000       0.000000
 Leave Link  402 at Tue Feb  7 16:57:33 2017, MaxMem=  1048576000 cpu:         0.3
 (Enter /mnt/data/applications/G09/g09/l716.exe)
 Dipole        = 0.00000000D+00 0.00000000D+00 0.00000000D+00
 Cartesian Forces:  Max     0.030333054 RMS     0.014288843
 Leave Link  716 at Tue Feb  7 16:57:33 2017, MaxMem=  1048576000 cpu:         0.3
 (Enter /mnt/data/applications/G09/g09/l120.exe)
 ONIOM: saving gridpoint  3
 ONIOM: restoring gridpoint 17
 ONIOM: generating point  2 -- high level on model system.
 Leave Link  120 at Tue Feb  7 16:57:33 2017, MaxMem=  1048576000 cpu:         0.0
 (Enter /mnt/data/applications/G09/g09/l301.exe)
 Standard basis: 6-31G(d) (6D, 7F)
 Ernie: Thresh=  0.10000D-02 Tol=  0.10000D-05 Strict=F.
    23 basis functions,    44 primitive gaussians,    23 cartesian basis functions
     5 alpha electrons        5 beta electrons
       nuclear repulsion energy        13.5485935903 Hartrees.
 IExCor=  402 DFT=T Ex+Corr=B3LYP ExCW=0 ScaHFX=  0.200000
 ScaDFX=  0.800000  0.720000  1.000000  0.810000 ScalE2=  1.000000  1.000000
 IRadAn=      0 IRanWt=     -1 IRanGd=            0 ICorTp=0 IEmpDi=  4
 NAtoms=   17 NActive=    5 NUniq=    5 SFac= 1.00D+00 NAtFMM=   60 NAOKFM=F Big=F
 Integral buffers will be    131072 words long.
 Raffenetti 2 integral format.
 Two-electron integral symmetry is turned off.
 Leave Link  301 at Tue Feb  7 16:57:33 2017, MaxMem=  1048576000 cpu:         0.5
 (Enter /mnt/data/applications/G09/g09/l302.exe)
 NPDir=0 NMtPBC=     1 NCelOv=     1 NCel=       1 NClECP=     1 NCelD=      1
         NCelK=      1 NCelE2=     1 NClLst=     1 CellRange=     0.0.
 One-electron integrals computed using PRISM.
 NBasis=    23 RedAO= T EigKep=  1.72D-02  NBF=    23
 NBsUse=    23 1.00D-06 EigRej= -1.00D+00 NBFU=    23
 Precomputing XC quadrature grid using
 IXCGrd= 4 IRadAn=           0 IRanWt=          -1 IRanGd=           0 AccXCQ= 0.00D+00.
 Generated NRdTot=       0 NPtTot=           0 NUsed=           0 NTot=          32
 NSgBfM=    23    23    23    23    23 MxSgAt=     5 MxSgA2=     5.
 Leave Link  302 at Tue Feb  7 16:57:34 2017, MaxMem=  1048576000 cpu:         1.8
 (Enter /mnt/data/applications/G09/g09/l303.exe)
 DipDrv:  MaxL=1.
 Leave Link  303 at Tue Feb  7 16:57:34 2017, MaxMem=  1048576000 cpu:         0.3
 (Enter /mnt/data/applications/G09/g09/l401.exe)
 ExpMin= 1.61D-01 ExpMax= 3.05D+03 ExpMxC= 4.57D+02 IAcc=1 IRadAn=         1 AccDes= 0.00D+00
 Harris functional with IExCor=  402 and IRadAn=       1 diagonalized for initial guess.
 HarFok:  IExCor=  402 AccDes= 0.00D+00 IRadAn=         1 IDoV= 1 UseB2=F ITyADJ=14
 ICtDFT=  3500011 ScaDFX=  1.000000  1.000000  1.000000  1.000000
 FoFCou: FMM=F IPFlag=           0 FMFlag=      100000 FMFlg1=           0
         NFxFlg=           0 DoJE=T BraDBF=F KetDBF=T FulRan=T
         wScrn=  0.000000 ICntrl=     500 IOpCl=  0 I1Cent=   200000004 NGrid=           0
         NMat0=    1 NMatS0=      1 NMatT0=    0 NMatD0=    1 NMtDS0=    0 NMtDT0=    0
 Symmetry not used in FoFCou.
 Harris En= -40.5645515994376    
 JPrj=0 DoOrth=F DoCkMO=F.
 Leave Link  401 at Tue Feb  7 16:57:34 2017, MaxMem=  1048576000 cpu:         1.5
 (Enter /mnt/data/applications/G09/g09/l502.exe)
 Closed shell SCF:
 Using DIIS extrapolation, IDIIS=  1040.
 Two-electron integral symmetry not used.
 Keep R1 ints in memory in canonical form, NReq=912373.
 IVT=       13969 IEndB=       13969 NGot=  1048576000 MDV=  1048523806
 LenX=  1048523806 LenY=  1048522836
 Requested convergence on RMS density matrix=1.00D-08 within 100 cycles.
 Requested convergence on MAX density matrix=1.00D-06.
 Requested convergence on             energy=1.00D-06.
 No special actions if energy rises.
 FoFCou: FMM=F IPFlag=           0 FMFlag=           0 FMFlg1=           0
         NFxFlg=           0 DoJE=F BraDBF=F KetDBF=F FulRan=T
         wScrn=  0.000000 ICntrl=     600 IOpCl=  0 I1Cent=           0 NGrid=           0
         NMat0=    1 NMatS0=    276 NMatT0=    0 NMatD0=    1 NMtDS0=    0 NMtDT0=    0
 Symmetry not used in FoFCou.
 Integral accuracy reduced to 1.0D-05 until final iterations.

 Cycle   1  Pass 0  IDiag  1:
 E= -40.4235783124349    
 DIIS: error= 6.90D-02 at cycle   1 NSaved=   1.
 NSaved= 1 IEnMin= 1 EnMin= -40.4235783124349     IErMin= 1 ErrMin= 6.90D-02
 ErrMax= 6.90D-02  0.00D+00 EMaxC= 1.00D-01 BMatC= 8.65D-02 BMatP= 8.65D-02
 IDIUse=3 WtCom= 3.10D-01 WtEn= 6.90D-01
 Coeff-Com:  0.100D+01
 Coeff-En:   0.100D+01
 Coeff:      0.100D+01
 Gap=     0.431 Goal=   None    Shift=    0.000
 GapD=    0.431 DampG=2.000 DampE=0.500 DampFc=1.0000 IDamp=-1.
 RMSDP=2.27D-02 MaxDP=1.59D-01              OVMax= 1.97D-01

 Cycle   2  Pass 0  IDiag  1:
 E= -40.4040709927710     Delta-E=        0.019507319664 Rises=F Damp=F
 DIIS: error= 7.34D-02 at cycle   2 NSaved=   2.
 NSaved= 2 IEnMin= 1 EnMin= -40.4235783124349     IErMin= 1 ErrMin= 6.90D-02
 ErrMax= 7.34D-02  0.00D+00 EMaxC= 1.00D-01 BMatC= 1.04D-01 BMatP= 8.65D-02
 IDIUse=2 WtCom= 0.00D+00 WtEn= 1.00D+00
 Coeff-En:   0.545D+00 0.455D+00
 Coeff:      0.545D+00 0.455D+00
 Gap=     0.497 Goal=   None    Shift=    0.000
 RMSDP=1.15D-02 MaxDP=7.19D-02 DE= 1.95D-02 OVMax= 9.85D-02

 Cycle   3  Pass 0  IDiag  1:
 E= -40.5168269274465     Delta-E=       -0.112755934675 Rises=F Damp=F
 DIIS: error= 3.26D-03 at cycle   3 NSaved=   3.
 NSaved= 3 IEnMin= 3 EnMin= -40.5168269274465     IErMin= 3 ErrMin= 3.26D-03
 ErrMax= 3.26D-03  0.00D+00 EMaxC= 1.00D-01 BMatC= 2.18D-04 BMatP= 8.65D-02
 IDIUse=3 WtCom= 9.67D-01 WtEn= 3.26D-02
 Coeff-Com:  0.133D-01-0.346D-01 0.102D+01
 Coeff-En:   0.000D+00 0.000D+00 0.100D+01
 Coeff:      0.129D-01-0.334D-01 0.102D+01
 Gap=     0.506 Goal=   None    Shift=    0.000
 RMSDP=4.54D-04 MaxDP=3.64D-03 DE=-1.13D-01 OVMax= 4.10D-03

 Cycle   4  Pass 0  IDiag  1:
 E= -40.5170391785415     Delta-E=       -0.000212251095 Rises=F Damp=F
 DIIS: error= 5.20D-05 at cycle   4 NSaved=   4.
 NSaved= 4 IEnMin= 4 EnMin= -40.5170391785415     IErMin= 4 ErrMin= 5.20D-05
 ErrMax= 5.20D-05  0.00D+00 EMaxC= 1.00D-01 BMatC= 6.72D-08 BMatP= 2.18D-04
 IDIUse=1 WtCom= 1.00D+00 WtEn= 0.00D+00
 Coeff-Com:  0.148D-02-0.151D-02 0.498D-01 0.950D+00
 Coeff:      0.148D-02-0.151D-02 0.498D-01 0.950D+00
 Gap=     0.507 Goal=   None    Shift=    0.000
 RMSDP=9.42D-06 MaxDP=4.02D-05 DE=-2.12D-04 OVMax= 9.94D-05

 Initial convergence to 1.0D-05 achieved.  Increase integral accuracy.
 Cycle   5  Pass 1  IDiag  1:
 E= -40.5170480118551     Delta-E=       -0.000008833314 Rises=F Damp=F
 DIIS: error= 8.47D-06 at cycle   1 NSaved=   1.
 NSaved= 1 IEnMin= 1 EnMin= -40.5170480118551     IErMin= 1 ErrMin= 8.47D-06
 ErrMax= 8.47D-06  0.00D+00 EMaxC= 1.00D-01 BMatC= 3.03D-09 BMatP= 3.03D-09
 IDIUse=1 WtCom= 1.00D+00 WtEn= 0.00D+00
 Coeff-Com:  0.100D+01
 Coeff:      0.100D+01
 Gap=     0.507 Goal=   None    Shift=    0.000
 RMSDP=9.42D-06 MaxDP=4.02D-05 DE=-8.83D-06 OVMax= 3.97D-05

 Cycle   6  Pass 1  IDiag  1:
 E= -40.5170480128290     Delta-E=       -0.000000000974 Rises=F Damp=F
 DIIS: error= 9.58D-06 at cycle   2 NSaved=   2.
 NSaved= 2 IEnMin= 2 EnMin= -40.5170480128290     IErMin= 1 ErrMin= 8.47D-06
 ErrMax= 9.58D-06  0.00D+00 EMaxC= 1.00D-01 BMatC= 2.06D-09 BMatP= 3.03D-09
 IDIUse=1 WtCom= 1.00D+00 WtEn= 0.00D+00
 Coeff-Com:  0.449D+00 0.551D+00
 Coeff:      0.449D+00 0.551D+00
 Gap=     0.507 Goal=   None    Shift=    0.000
 RMSDP=1.76D-06 MaxDP=1.36D-05 DE=-9.74D-10 OVMax= 1.91D-05

 Cycle   7  Pass 1  IDiag  1:
 E= -40.5170480148511     Delta-E=       -0.000000002022 Rises=F Damp=F
 DIIS: error= 1.78D-06 at cycle   3 NSaved=   3.
 NSaved= 3 IEnMin= 3 EnMin= -40.5170480148511     IErMin= 3 ErrMin= 1.78D-06
 ErrMax= 1.78D-06  0.00D+00 EMaxC= 1.00D-01 BMatC= 7.30D-11 BMatP= 2.06D-09
 IDIUse=1 WtCom= 1.00D+00 WtEn= 0.00D+00
 Coeff-Com:  0.141D+00 0.238D+00 0.622D+00
 Coeff:      0.141D+00 0.238D+00 0.622D+00
 Gap=     0.507 Goal=   None    Shift=    0.000
 RMSDP=3.04D-07 MaxDP=2.09D-06 DE=-2.02D-09 OVMax= 2.80D-06

 Cycle   8  Pass 1  IDiag  1:
 E= -40.5170480149248     Delta-E=       -0.000000000074 Rises=F Damp=F
 DIIS: error= 5.13D-08 at cycle   4 NSaved=   4.
 NSaved= 4 IEnMin= 4 EnMin= -40.5170480149248     IErMin= 4 ErrMin= 5.13D-08
 ErrMax= 5.13D-08  0.00D+00 EMaxC= 1.00D-01 BMatC= 9.20D-14 BMatP= 7.30D-11
 IDIUse=1 WtCom= 1.00D+00 WtEn= 0.00D+00
 Coeff-Com: -0.721D-02-0.354D-02 0.924D-02 0.100D+01
 Coeff:     -0.721D-02-0.354D-02 0.924D-02 0.100D+01
 Gap=     0.507 Goal=   None    Shift=    0.000
 RMSDP=1.79D-08 MaxDP=8.56D-08 DE=-7.37D-11 OVMax= 1.56D-07

 Cycle   9  Pass 1  IDiag  1:
 E= -40.5170480149249     Delta-E=        0.000000000000 Rises=F Damp=F
 DIIS: error= 4.91D-09 at cycle   5 NSaved=   5.
 NSaved= 5 IEnMin= 5 EnMin= -40.5170480149249     IErMin= 5 ErrMin= 4.91D-09
 ErrMax= 4.91D-09  0.00D+00 EMaxC= 1.00D-01 BMatC= 5.42D-16 BMatP= 9.20D-14
 IDIUse=1 WtCom= 1.00D+00 WtEn= 0.00D+00
 Coeff-Com: -0.143D-02-0.188D-02-0.279D-02 0.902D-01 0.916D+00
 Coeff:     -0.143D-02-0.188D-02-0.279D-02 0.902D-01 0.916D+00
 Gap=     0.507 Goal=   None    Shift=    0.000
 RMSDP=1.50D-09 MaxDP=1.06D-08 DE=-1.35D-13 OVMax= 1.80D-08

 SCF Done:  E(RB3LYP) =  -40.5170480149     A.U. after    9 cycles
            NFock=  9  Conv=0.15D-08     -V/T= 2.0095
 KE= 4.013675281510D+01 PE=-1.201797828572D+02 EE= 2.597738843683D+01
 Leave Link  502 at Tue Feb  7 16:57:35 2017, MaxMem=  1048576000 cpu:         3.0
 (Enter /mnt/data/applications/G09/g09/l601.exe)
 Copying SCF densities to generalized density rwf, IOpCl= 0 IROHF=0.

 **********************************************************************

            Population analysis using the SCF density.

 **********************************************************************

 Alpha  occ. eigenvalues --  -10.16186  -0.69426  -0.39355  -0.39355  -0.38625
 Alpha virt. eigenvalues --    0.12033   0.17366   0.18375   0.18375   0.52563
 Alpha virt. eigenvalues --    0.52563   0.53779   0.88722   0.91567   0.91567
 Alpha virt. eigenvalues --    0.97050   1.10358   1.65394   1.65394   2.22949
 Alpha virt. eigenvalues --    2.27576   2.27576   4.18825
          Condensed to atoms (all electrons):
               1          2          3          4          5
     1  C    5.088778   0.387215   0.387214   0.387214   0.382502
     2  H    0.387215   0.533735  -0.027944  -0.027943  -0.026185
     3  H    0.387214  -0.027944   0.533737  -0.027944  -0.026186
     4  H    0.387214  -0.027943  -0.027944   0.533738  -0.026186
     5  H    0.382502  -0.026185  -0.026186  -0.026186   0.546495
 Mulliken charges:
               1
     1  C   -0.632923
     2  H    0.161122
     3  H    0.161121
     4  H    0.161121
     5  H    0.149559
     6  C    0.000000
     7  H    0.000000
     8  H    0.000000
     9  H    0.000000
    10  C    0.000000
    11  H    0.000000
    12  H    0.000000
    13  H    0.000000
    14  C    0.000000
    15  H    0.000000
    16  H    0.000000
    17  H    0.000000
 Sum of Mulliken charges =   0.00000
 Mulliken charges with hydrogens summed into heavy atoms:
               1
     1  C    0.000000
     6  C    0.000000
    10  C    0.000000
    14  C    0.000000
 Electronic spatial extent (au):  <R**2>=            353.5838
 Charge=              0.0000 electrons
 Dipole moment (field-independent basis, Debye):
    X=             -0.0106    Y=             -0.0150    Z=             -0.0260  Tot=              0.0319
 Quadrupole moment (field-independent basis, Debye-Ang):
   XX=             -8.2329   YY=             -8.1320   ZZ=             -8.2108
   XY=              0.0283   XZ=             -0.0054   YZ=              0.0857
 Traceless Quadrupole moment (field-independent basis, Debye-Ang):
   XX=             -0.0410   YY=              0.0599   ZZ=             -0.0189
   XY=              0.0283   XZ=             -0.0054   YZ=              0.0857
 Octapole moment (field-independent basis, Debye-Ang**2):
  XXX=            -11.8012  YYY=             71.8652  ZZZ=             -0.1732  XYY=             -3.4011
  XXY=             24.2928  XXZ=             -0.0679  XZZ=             -3.3051  YZZ=             24.7639
  YYZ=             -0.3368  XYZ=              0.0347
 Hexadecapole moment (field-independent basis, Debye-Ang**3):
 XXXX=            -25.7371 YYYY=           -436.6275 ZZZZ=            -15.0355 XXXY=             34.7704
 XXXZ=             -0.1865 YYYX=             29.0674 YYYZ=              1.2863 ZZZX=             -0.1390
 ZZZY=              0.4244 XXYY=            -78.1307 XXZZ=             -6.4776 YYZZ=            -79.6138
 XXYZ=              0.1766 YYXZ=             -0.2044 ZZXY=             10.2820
 N-N= 1.354859359030D+01 E-N=-1.201797827930D+02  KE= 4.013675281510D+01
 No NMR shielding tensors so no spin-rotation constants.
 Leave Link  601 at Tue Feb  7 16:57:35 2017, MaxMem=  1048576000 cpu:         1.6
 (Enter /mnt/data/applications/G09/g09/l701.exe)
 Compute integral first derivatives.
 ... and contract with generalized density number  0.
 Leave Link  701 at Tue Feb  7 16:57:35 2017, MaxMem=  1048576000 cpu:         1.7
 (Enter /mnt/data/applications/G09/g09/l702.exe)
 L702 exits ... SP integral derivatives will be done elsewhere.
 Leave Link  702 at Tue Feb  7 16:57:35 2017, MaxMem=  1048576000 cpu:         0.3
 (Enter /mnt/data/applications/G09/g09/l703.exe)
 Compute integral first derivatives, UseDBF=F ICtDFT=           0.
 Integral derivatives from FoFJK, PRISM(SPDF).
 Calling FoFJK, ICntrl=      2127 FMM=F ISym2X=0 I1Cent= 0 IOpClX= 0 NMat=1 NMatS=1 NMatT=0.
 FoFJK:  IHMeth= 1 ICntrl=    2127 DoSepK=F KAlg= 0 I1Cent=   0 FoldK=F
 IRaf=         0 NMat=   1 IRICut=       1 DoRegI=T DoRafI=F ISym2E= 0.
 FoFCou: FMM=F IPFlag=           0 FMFlag=      100000 FMFlg1=         800
         NFxFlg=           0 DoJE=F BraDBF=F KetDBF=F FulRan=T
         wScrn=  0.000000 ICntrl=    2127 IOpCl=  0 I1Cent=           0 NGrid=           0
         NMat0=    1 NMatS0=      1 NMatT0=    0 NMatD0=    1 NMtDS0=    0 NMtDT0=    0
 Symmetry not used in FoFCou.
 Leave Link  703 at Tue Feb  7 16:57:36 2017, MaxMem=  1048576000 cpu:         2.2
 (Enter /mnt/data/applications/G09/g09/l716.exe)
 Dipole        =-4.18130221D-03-5.91660220D-03-1.02426456D-02
 Cartesian Forces:  Max     0.022392271 RMS     0.005841897
 Leave Link  716 at Tue Feb  7 16:57:36 2017, MaxMem=  1048576000 cpu:         0.3
 (Enter /mnt/data/applications/G09/g09/l120.exe)
 SvSCFP is copying densities from files   528 and   530 to   603.
 ONIOM: saving gridpoint  2
 ONIOM: restoring gridpoint 17
 ONIOM: generating point  1 -- low level on model system.
 Generating MM parameters for model system.
 Include all MM classes

 MM sanity checks:
 All charges sum to:                0.00000000
 Charges of atoms sum to:           0.00000000
 MMInit generated parameter data with length LenPar=         958.
 Leave Link  120 at Tue Feb  7 16:57:36 2017, MaxMem=  1048576000 cpu:         0.4
 (Enter /mnt/data/applications/G09/g09/l301.exe)
 Standard basis: Dummy (5D, 7F)
     5 basis functions,     5 primitive gaussians,     5 cartesian basis functions
     3 alpha electrons        3 beta electrons
       nuclear repulsion energy         5.7151347307 Hartrees.
 IExCor=    0 DFT=F Ex=HF Corr=None ExCW=0 ScaHFX=  1.000000
 ScaDFX=  1.000000  1.000000  1.000000  1.000000 ScalE2=  1.000000  1.000000
 IRadAn=      0 IRanWt=     -1 IRanGd=            0 ICorTp=0 IEmpDi=  4
 NAtoms=   17 NActive=    5 NUniq=    5 SFac= 1.00D+00 NAtFMM=   60 NAOKFM=F Big=F
 Integral buffers will be    131072 words long.
 Raffenetti 1 integral format.
 Two-electron integral symmetry is turned off.
 Leave Link  301 at Tue Feb  7 16:57:36 2017, MaxMem=  1048576000 cpu:         0.4
 (Enter /mnt/data/applications/G09/g09/l402.exe)
 UFF calculation of energy and first derivatives.
 Energy per function type:
 Direct Coulomb + vdW (small)                           0.000000000
 Direct Coulomb (large)                                 0.000000000
 Direct vdW (large)                                   326.720705359
 Non-direct Coulomb + vdW (small)                       0.000000000
 Non-direct Coulomb (large)                             0.000000000
 Non-direct vdW (large)                              -326.720705359
 Harmonic stretch III                                   0.002472458
 UFF 3-term bend                                        0.000000000
 Energy per function class:
        Coulomb               0.000000000
    Vanderwaals               0.000000000
     Stretching               0.002472458
        Bending               0.000000000
 Energy=    2.472457644E-03 NIter=   0.
 Dipole moment=       0.000000       0.000000       0.000000
 Leave Link  402 at Tue Feb  7 16:57:36 2017, MaxMem=  1048576000 cpu:         0.3
 (Enter /mnt/data/applications/G09/g09/l716.exe)
 Dipole        = 0.00000000D+00 0.00000000D+00 0.00000000D+00
 Cartesian Forces:  Max     0.022000862 RMS     0.006396216
 Leave Link  716 at Tue Feb  7 16:57:36 2017, MaxMem=  1048576000 cpu:         0.3
 (Enter /mnt/data/applications/G09/g09/l120.exe)
 ONIOM: saving gridpoint  1
 ONIOM: restoring gridpoint  3
 ONIOM: calculating energy.
 ONIOM: gridpoint  1 method:  low   system:  model energy:     0.002472457644
 ONIOM: gridpoint  2 method:  high  system:  model energy:   -40.517048014925
 ONIOM: gridpoint  3 method:  low   system:  real  energy:     0.020205309310
 ONIOM: extrapolated energy =     -40.499315163259
 ONIOM: calculating first derivatives.
 ONIOM: calculating electric field derivatives.
 ONIOM: Integrating ONIOM file  4 number   619
 ONIOM: Dipole        =-4.18130221D-03-5.91660220D-03-1.02426456D-02
 ONIOM: Dipole moment (Debye):
    X=    -0.0106    Y=    -0.0150    Z=    -0.0260  Tot=     0.0319
 ONIOM: Integrating ONIOM file  5 number   695
 Nuclear Quadrupole Tensors: 
                 1             2             3             4             5 
      1   0.104090D-01  0.113278D+00  0.113272D+00 -0.340137D+00  0.000000D+00
      2  -0.735897D-02  0.160491D+00 -0.803684D-01  0.197189D-03  0.000000D+00
      3   0.520312D-02 -0.283330D+00  0.564480D-01  0.170086D+00  0.000000D+00
      4  -0.127480D-01 -0.138274D-03  0.138927D+00  0.330435D-03  0.000000D+00
      5  -0.180278D-01  0.301576D-03  0.196467D+00 -0.298571D-04  0.000000D+00
      6  -0.156121D-01  0.170051D+00 -0.169720D+00  0.170051D+00  0.000000D+00
                 6             7             8             9            10 
      1   0.000000D+00  0.000000D+00  0.000000D+00  0.000000D+00  0.000000D+00
      2   0.000000D+00  0.000000D+00  0.000000D+00  0.000000D+00  0.000000D+00
      3   0.000000D+00  0.000000D+00  0.000000D+00  0.000000D+00  0.000000D+00
      4   0.000000D+00  0.000000D+00  0.000000D+00  0.000000D+00  0.000000D+00
      5   0.000000D+00  0.000000D+00  0.000000D+00  0.000000D+00  0.000000D+00
      6   0.000000D+00  0.000000D+00  0.000000D+00  0.000000D+00  0.000000D+00
                11            12            13            14            15 
      1   0.000000D+00  0.000000D+00  0.000000D+00  0.000000D+00  0.000000D+00
      2   0.000000D+00  0.000000D+00  0.000000D+00  0.000000D+00  0.000000D+00
      3   0.000000D+00  0.000000D+00  0.000000D+00  0.000000D+00  0.000000D+00
      4   0.000000D+00  0.000000D+00  0.000000D+00  0.000000D+00  0.000000D+00
      5   0.000000D+00  0.000000D+00  0.000000D+00  0.000000D+00  0.000000D+00
      6   0.000000D+00  0.000000D+00  0.000000D+00  0.000000D+00  0.000000D+00
                16            17 
      1   0.000000D+00  0.000000D+00
      2   0.000000D+00  0.000000D+00
      3   0.000000D+00  0.000000D+00
      4   0.000000D+00  0.000000D+00
      5   0.000000D+00  0.000000D+00
      6   0.000000D+00  0.000000D+00
 Saving ESP charges from gridpoint 2
 Leave Link  120 at Tue Feb  7 16:57:36 2017, MaxMem=  1048576000 cpu:         0.0
 (Enter /mnt/data/applications/G09/g09/l716.exe)
 Dipole        =-4.18130221D-03-5.91660220D-03-1.02426456D-02
 -------------------------------------------------------------------
 Center     Atomic                   Forces (Hartrees/Bohr)
 Number     Number              X              Y              Z
 -------------------------------------------------------------------
      1        6           0.009988857    0.014129178    0.024484806
      2        1           0.004509608   -0.017367151   -0.002674328
      3        1           0.004498573    0.006366979   -0.016380147
      4        1          -0.017873424   -0.001548590   -0.002675713
      5        6          -0.002416950   -0.003418939   -0.005927316
      6        6          -0.030333054    0.000000634    0.000000055
      7        1           0.011407491    0.010357212   -0.017989789
      8        1           0.011407019    0.010400885    0.017964841
      9        1           0.011406090   -0.020758921    0.000025236
     10        6           0.010107548   -0.028599268   -0.000005394
     11        1           0.005978405    0.014215402    0.017978817
     12        1           0.005990097    0.014210324   -0.017976797
     13        1          -0.023373737    0.003838289   -0.000002623
     14        6           0.010111022    0.014305560   -0.024762555
     15        1           0.005988109    0.008460985    0.021297209
     16        1          -0.023373715   -0.001914804    0.003322002
     17        1           0.005978060   -0.022677774    0.003321697
 -------------------------------------------------------------------
 Cartesian Forces:  Max     0.030333054 RMS     0.013825476
 Leave Link  716 at Tue Feb  7 16:57:36 2017, MaxMem=  1048576000 cpu:         0.3
 (Enter /mnt/data/applications/G09/g09/l103.exe)

 GradGradGradGradGradGradGradGradGradGradGradGradGradGradGradGradGradGrad
 Berny optimization.
 FormGI is forming the generalized inverse of G from B-inverse, IUseBI=4.
 Internal  Forces:  Max     0.023373982 RMS     0.008738286
 Search for a local minimum.
 Step number   1 out of a maximum of   92
 All quantities printed in internal units (Hartrees-Bohrs-Radians)
 RMS Force = .87383D-02 SwitMx=.10000D-02 MixMth= 1
 Mixed Optimization -- RFO/linear search
 Second derivative matrix not updated -- first step.
 ITU=  0
     Eigenvalues ---    0.00237   0.00237   0.00237   0.00237   0.04739
     Eigenvalues ---    0.04739   0.04739   0.05720   0.05720   0.05720
     Eigenvalues ---    0.05720   0.05720   0.05720   0.05720   0.05720
     Eigenvalues ---    0.14387   0.14387   0.16000   0.16000   0.16000
     Eigenvalues ---    0.16000   0.16000   0.16000   0.16000   0.16000
     Eigenvalues ---    0.16000   0.16000   0.16000   0.16000   0.28519
     Eigenvalues ---    0.28519   0.28519   0.28519   0.37230   0.37230
     Eigenvalues ---    0.37230   0.37230   0.37230   0.37230   0.37230
     Eigenvalues ---    0.37230   0.37230   0.37230   0.37230   0.37230
 RFO step:  Lambda=-1.71329247D-02 EMin= 2.36824083D-03
 Linear search not attempted -- first point.
 Iteration  1 RMS(Cart)=  0.02968847 RMS(Int)=  0.00027717
 Iteration  2 RMS(Cart)=  0.00034331 RMS(Int)=  0.00012219
 Iteration  3 RMS(Cart)=  0.00000016 RMS(Int)=  0.00012219
 ITry= 1 IFail=0 DXMaxC= 7.86D-02 DCOld= 1.00D+10 DXMaxT= 3.00D-01 DXLimC= 3.00D+00 Rises=F
 Variable       Old X    -DE/DX   Delta X   Delta X   Delta X     New X
                                 (Linear)    (Quad)   (Total)
    R1        2.02201   0.01788   0.00000   0.04590   0.04590   2.06791
    R2        2.02201   0.01788   0.00000   0.04590   0.04590   2.06791
    R3        2.02201   0.01787   0.00000   0.04590   0.04590   2.06790
    R4        2.91018  -0.00337   0.00000  -0.01114  -0.01114   2.89904
    R5        2.91018   0.00389   0.00000   0.01286   0.01286   2.92304
    R6        2.91018   0.00389   0.00000   0.01286   0.01286   2.92304
    R7        2.91018   0.00389   0.00000   0.01286   0.01286   2.92304
    R8        2.02201   0.02337   0.00000   0.06002   0.06002   2.08203
    R9        2.02201   0.02337   0.00000   0.06002   0.06002   2.08203
   R10        2.02201   0.02337   0.00000   0.06002   0.06002   2.08203
   R11        2.02201   0.02337   0.00000   0.06002   0.06002   2.08203
   R12        2.02201   0.02337   0.00000   0.06002   0.06002   2.08203
   R13        2.02201   0.02337   0.00000   0.06002   0.06002   2.08203
   R14        2.02201   0.02337   0.00000   0.06002   0.06002   2.08203
   R15        2.02201   0.02337   0.00000   0.06002   0.06002   2.08203
   R16        2.02201   0.02337   0.00000   0.06002   0.06002   2.08203
    A1        1.91063  -0.00312   0.00000  -0.01764  -0.01780   1.89284
    A2        1.91063  -0.00312   0.00000  -0.01762  -0.01778   1.89286
    A3        1.91063   0.00312   0.00000   0.01758   0.01742   1.92805
    A4        1.91063  -0.00313   0.00000  -0.01764  -0.01779   1.89284
    A5        1.91063   0.00313   0.00000   0.01765   0.01749   1.92813
    A6        1.91063   0.00313   0.00000   0.01766   0.01750   1.92813
    A7        1.91063   0.00000   0.00000  -0.00001  -0.00001   1.91062
    A8        1.91063   0.00000   0.00000   0.00001   0.00001   1.91065
    A9        1.91063   0.00000   0.00000   0.00000   0.00000   1.91063
   A10        1.91063   0.00000   0.00000   0.00000   0.00000   1.91063
   A11        1.91063   0.00000   0.00000   0.00000   0.00000   1.91063
   A12        1.91063   0.00000   0.00000   0.00001   0.00001   1.91064
   A13        1.91063   0.00388   0.00000   0.02189   0.02164   1.93228
   A14        1.91063   0.00388   0.00000   0.02189   0.02164   1.93228
   A15        1.91063   0.00388   0.00000   0.02188   0.02163   1.93227
   A16        1.91063  -0.00388   0.00000  -0.02189  -0.02213   1.88851
   A17        1.91063  -0.00388   0.00000  -0.02189  -0.02213   1.88851
   A18        1.91063  -0.00388   0.00000  -0.02189  -0.02213   1.88851
   A19        1.91063   0.00388   0.00000   0.02192   0.02167   1.93230
   A20        1.91067   0.00387   0.00000   0.02182   0.02157   1.93223
   A21        1.91061   0.00388   0.00000   0.02193   0.02168   1.93229
   A22        1.91063  -0.00388   0.00000  -0.02189  -0.02213   1.88851
   A23        1.91063  -0.00388   0.00000  -0.02190  -0.02214   1.88850
   A24        1.91063  -0.00387   0.00000  -0.02188  -0.02212   1.88852
   A25        1.91063   0.00387   0.00000   0.02186   0.02162   1.93225
   A26        1.91063   0.00388   0.00000   0.02188   0.02164   1.93227
   A27        1.91063   0.00388   0.00000   0.02192   0.02167   1.93230
   A28        1.91063  -0.00388   0.00000  -0.02188  -0.02212   1.88852
   A29        1.91063  -0.00388   0.00000  -0.02189  -0.02213   1.88851
   A30        1.91063  -0.00388   0.00000  -0.02190  -0.02214   1.88850
    D1        1.04718   0.00000   0.00000  -0.00014  -0.00014   1.04704
    D2        3.14157   0.00000   0.00000  -0.00014  -0.00014   3.14143
    D3       -1.04722   0.00000   0.00000  -0.00013  -0.00013  -1.04735
    D4       -1.04722   0.00000   0.00000  -0.00011  -0.00011  -1.04733
    D5        1.04718   0.00000   0.00000  -0.00012  -0.00012   1.04706
    D6        3.14157   0.00000   0.00000  -0.00010  -0.00010   3.14147
    D7        3.14157   0.00000   0.00000  -0.00014  -0.00014   3.14143
    D8       -1.04722   0.00000   0.00000  -0.00014  -0.00014  -1.04736
    D9        1.04718   0.00000   0.00000  -0.00013  -0.00013   1.04705
   D10        1.04528   0.00001   0.00000   0.00049   0.00049   1.04576
   D11        3.13967   0.00001   0.00000   0.00049   0.00049   3.14016
   D12       -1.04912   0.00001   0.00000   0.00049   0.00049  -1.04863
   D13       -1.04912   0.00001   0.00000   0.00048   0.00048  -1.04864
   D14        1.04528   0.00001   0.00000   0.00049   0.00049   1.04576
   D15        3.13967   0.00001   0.00000   0.00048   0.00048   3.14016
   D16        3.13967   0.00001   0.00000   0.00048   0.00048   3.14015
   D17       -1.04912   0.00001   0.00000   0.00048   0.00048  -1.04864
   D18        1.04528   0.00001   0.00000   0.00048   0.00048   1.04576
   D19        3.14140   0.00000   0.00000   0.00002   0.00002   3.14143
   D20       -1.04737   0.00000   0.00000   0.00000   0.00000  -1.04737
   D21        1.04703   0.00000   0.00000  -0.00001  -0.00001   1.04702
   D22       -1.04739   0.00000   0.00000   0.00001   0.00001  -1.04738
   D23        1.04702   0.00000   0.00000  -0.00001  -0.00001   1.04701
   D24        3.14142   0.00000   0.00000  -0.00002  -0.00002   3.14140
   D25        1.04701   0.00000   0.00000   0.00001   0.00001   1.04702
   D26        3.14142   0.00000   0.00000  -0.00001  -0.00001   3.14141
   D27       -1.04737   0.00000   0.00000  -0.00002  -0.00002  -1.04739
   D28        3.14143   0.00000   0.00000  -0.00002  -0.00002   3.14141
   D29       -1.04736   0.00000   0.00000  -0.00003  -0.00003  -1.04739
   D30        1.04704   0.00000   0.00000  -0.00003  -0.00003   1.04701
   D31        1.04704   0.00000   0.00000   0.00000   0.00000   1.04703
   D32        3.14143   0.00000   0.00000  -0.00001  -0.00001   3.14142
   D33       -1.04736   0.00000   0.00000  -0.00001  -0.00001  -1.04737
   D34       -1.04736   0.00000   0.00000   0.00000   0.00000  -1.04736
   D35        1.04704   0.00000   0.00000  -0.00001  -0.00001   1.04703
   D36        3.14143   0.00000   0.00000  -0.00001  -0.00001   3.14143
         Item               Value     Threshold  Converged?
 Maximum Force            0.023374     0.000450     NO 
 RMS     Force            0.008738     0.000300     NO 
 Maximum Displacement     0.078614     0.001800     NO 
 RMS     Displacement     0.029807     0.001200     NO 
 Predicted change in Energy=-8.993390D-03
 Lowest energy point so far.  Saving SCF results.
 GradGradGradGradGradGradGradGradGradGradGradGradGradGradGradGradGradGrad

 Leave Link  103 at Tue Feb  7 16:57:36 2017, MaxMem=  1048576000 cpu:         0.1
 (Enter /mnt/data/applications/G09/g09/l202.exe)
                          Input orientation:                          
 ---------------------------------------------------------------------
 Center     Atomic      Atomic             Coordinates (Angstroms)
 Number     Number       Type             X           Y           Z
 ---------------------------------------------------------------------
      1          6    10061003        0.445907   -2.954708    0.001401
      2          1    10011000        0.801734   -3.989401   -0.015140
      3          1    10011000        0.801511   -2.451663   -0.903011
      4          1    10011000       -0.648213   -2.964394   -0.015118
      5          6    10061003        0.957271   -2.231488    1.253972
      6          6    10061003        2.504076   -2.231541    1.253981
      7          1    10011000        2.893747   -1.717592    0.360734
      8          1    10011000        2.893734   -1.714964    2.145716
      9          1    10011000        2.893677   -3.262117    1.255500
     10          6    10061003        0.441725   -0.773127    1.253918
     11          1    10011000        0.797508   -0.234022    2.146478
     12          1    10011000        0.797858   -0.234031    0.361494
     13          1    10011000       -0.659776   -0.749230    1.253716
     14          6    10061003        0.441638   -2.960604    2.516953
     15          1    10011000        0.797732   -2.457308    3.430061
     16          1    10011000       -0.659866   -2.972330    2.537677
     17          1    10011000        0.797376   -4.003150    2.537572
 ---------------------------------------------------------------------
                    Distance matrix (angstroms):
                    1          2          3          4          5
     1  C    0.000000
     2  H    1.094292   0.000000
     3  H    1.094290   1.775655   0.000000
     4  H    1.094287   1.775665   1.775653   0.000000
     5  C    1.534104   2.173728   2.173778   2.173780   0.000000
     6  C    2.515549   2.756575   2.756773   3.476293   1.546805
     7  H    2.766134   3.111095   2.552129   3.773759   2.193604
     8  H    3.482372   3.770786   3.770260   4.333090   2.193603
     9  H    2.767462   2.553369   3.113385   3.774666   2.193597
    10  C    2.515574   3.476281   2.756678   2.756822   1.546805
    11  H    3.482400   4.333068   3.770587   3.770615   2.193618
    12  H    2.766880   3.774211   2.552818   3.112530   2.193574
    13  H    2.766761   3.774217   3.112091   2.552847   2.193612
    14  C    2.515562   2.756734   3.476302   2.756660   1.546806
    15  H    3.482370   3.770509   4.333077   3.770565   2.193585
    16  H    2.766901   3.112488   3.774261   2.552835   2.193599
    17  H    2.766753   2.552753   3.774220   3.112069   2.193623
                    6          7          8          9         10
     6  C    0.000000
     7  H    1.101761   0.000000
     8  H    1.101761   1.784984   0.000000
     9  H    1.101761   1.784983   1.784983   0.000000
    10  C    2.525918   2.775284   2.773934   3.493872   0.000000
    11  H    2.774708   3.127951   2.566584   3.789079   1.101761
    12  H    2.774484   2.567821   3.125590   3.789593   1.101761
    13  H    3.493881   3.789811   3.788898   4.352199   1.101761
    14  C    2.525921   3.493879   2.775286   2.773926   2.525928
    15  H    2.774510   3.789621   2.567848   3.125607   2.774672
    16  H    3.493876   4.352196   3.789812   3.788881   2.774533
    17  H    2.774713   3.789085   3.127949   2.566577   3.493895
                   11         12         13         14         15
    11  H    0.000000
    12  H    1.784984   0.000000
    13  H    1.784976   1.784990   0.000000
    14  C    2.774553   3.493866   2.774717   0.000000
    15  H    2.567214   3.789336   3.127034   1.101761   0.000000
    16  H    3.126548   3.789329   2.567242   1.101761   1.784989
    17  H    3.789364   4.352192   3.789403   1.101761   1.784983
                   16         17
    16  H    0.000000
    17  H    1.784977   0.000000
 Symmetry turned off by external request.
 Stoichiometry    C5H12
 Framework group  C1[X(C5H12)]
 Deg. of freedom    45
 Full point group                 C1      NOp   1
 Rotational constants (GHZ):      4.4082453      4.4082277      4.3821666
 Leave Link  202 at Tue Feb  7 16:57:37 2017, MaxMem=  1048576000 cpu:         0.0
 (Enter /mnt/data/applications/G09/g09/l120.exe)
 ONIOM: saving gridpoint 17
 ONIOM: restoring gridpoint  3
 ONIOM: restoring gridpoint  3 on chk file.
 ONIOM: generating point  3 -- low level on real system.
 Leave Link  120 at Tue Feb  7 16:57:37 2017, MaxMem=  1048576000 cpu:         0.0
 (Enter /mnt/data/applications/G09/g09/l301.exe)
 Standard basis: Dummy (5D, 7F)
    17 basis functions,    17 primitive gaussians,    17 cartesian basis functions
    11 alpha electrons       11 beta electrons
       nuclear repulsion energy        52.8603277014 Hartrees.
 IExCor=    0 DFT=F Ex=HF Corr=None ExCW=0 ScaHFX=  1.000000
 ScaDFX=  1.000000  1.000000  1.000000  1.000000 ScalE2=  1.000000  1.000000
 IRadAn=      0 IRanWt=     -1 IRanGd=            0 ICorTp=0 IEmpDi=  4
 NAtoms=   17 NActive=   17 NUniq=   17 SFac= 1.00D+00 NAtFMM=   60 NAOKFM=F Big=F
 Integral buffers will be    131072 words long.
 Raffenetti 1 integral format.
 Two-electron integral symmetry is turned off.
 Leave Link  301 at Tue Feb  7 16:57:37 2017, MaxMem=  1048576000 cpu:         0.4
 (Enter /mnt/data/applications/G09/g09/l402.exe)
 UFF calculation of energy and first derivatives.
 Energy per function type:
 Direct Coulomb + vdW (small)                           0.005818435
 Direct Coulomb (large)                                 0.000000000
 Direct vdW (large)                                   819.129515639
 Non-direct Coulomb + vdW (small)                       0.000000000
 Non-direct Coulomb (large)                             0.000000000
 Non-direct vdW (large)                              -819.129515639
 Harmonic stretch III                                   0.002663582
 UFF 3-term bend                                        0.000800506
 UFF torsion w/ sp3 V                                   0.000000016
 Energy per function class:
        Coulomb               0.000000000
    Vanderwaals               0.005818435
     Stretching               0.002663582
        Bending               0.000800506
        Torsion               0.000000016
 Energy=    9.282539916E-03 NIter=   0.
 Dipole moment=       0.000000       0.000000       0.000000
 Leave Link  402 at Tue Feb  7 16:57:37 2017, MaxMem=  1048576000 cpu:         0.3
 (Enter /mnt/data/applications/G09/g09/l716.exe)
 Dipole        = 0.00000000D+00 0.00000000D+00 0.00000000D+00
 Cartesian Forces:  Max     0.009675196 RMS     0.004220589
 Leave Link  716 at Tue Feb  7 16:57:37 2017, MaxMem=  1048576000 cpu:         0.3
 (Enter /mnt/data/applications/G09/g09/l120.exe)
 ONIOM: saving gridpoint  3
 ONIOM: restoring gridpoint  2
 ONIOM: restoring gridpoint  2 on chk file.
 ONIOM: generating point  2 -- high level on model system.
 Leave Link  120 at Tue Feb  7 16:57:37 2017, MaxMem=  1048576000 cpu:         0.0
 (Enter /mnt/data/applications/G09/g09/l301.exe)
 Standard basis: 6-31G(d) (6D, 7F)
 Ernie: Thresh=  0.10000D-02 Tol=  0.10000D-05 Strict=F.
    23 basis functions,    44 primitive gaussians,    23 cartesian basis functions
     5 alpha electrons        5 beta electrons
       nuclear repulsion energy        13.3340569265 Hartrees.
 IExCor=  402 DFT=T Ex+Corr=B3LYP ExCW=0 ScaHFX=  0.200000
 ScaDFX=  0.800000  0.720000  1.000000  0.810000 ScalE2=  1.000000  1.000000
 IRadAn=      0 IRanWt=     -1 IRanGd=            0 ICorTp=0 IEmpDi=  4
 NAtoms=   17 NActive=    5 NUniq=    5 SFac= 1.00D+00 NAtFMM=   60 NAOKFM=F Big=F
 Integral buffers will be    131072 words long.
 Raffenetti 2 integral format.
 Two-electron integral symmetry is turned off.
 Leave Link  301 at Tue Feb  7 16:57:37 2017, MaxMem=  1048576000 cpu:         0.6
 (Enter /mnt/data/applications/G09/g09/l302.exe)
 NPDir=0 NMtPBC=     1 NCelOv=     1 NCel=       1 NClECP=     1 NCelD=      1
         NCelK=      1 NCelE2=     1 NClLst=     1 CellRange=     0.0.
 One-electron integrals computed using PRISM.
 NBasis=    23 RedAO= T EigKep=  1.82D-02  NBF=    23
 NBsUse=    23 1.00D-06 EigRej= -1.00D+00 NBFU=    23
 Precomputing XC quadrature grid using
 IXCGrd= 4 IRadAn=           0 IRanWt=          -1 IRanGd=           0 AccXCQ= 0.00D+00.
 Generated NRdTot=       0 NPtTot=           0 NUsed=           0 NTot=          32
 NSgBfM=    23    23    23    23    23 MxSgAt=     5 MxSgA2=     5.
 Leave Link  302 at Tue Feb  7 16:57:38 2017, MaxMem=  1048576000 cpu:         1.7
 (Enter /mnt/data/applications/G09/g09/l303.exe)
 DipDrv:  MaxL=1.
 Leave Link  303 at Tue Feb  7 16:57:38 2017, MaxMem=  1048576000 cpu:         0.3
 (Enter /mnt/data/applications/G09/g09/l401.exe)
 Initial guess from the checkpoint file:  "A_5_freq_UFF.chk"
 B after Tr=    -0.004812   -0.006027   -0.010115
         Rot=    1.000000    0.000007   -0.000020   -0.000062 Ang=   0.01 deg.
 Guess basis will be translated and rotated to current coordinates.
 JPrj=2 DoOrth=T DoCkMO=T.
 Generating alternative initial guess.
 ExpMin= 1.61D-01 ExpMax= 3.05D+03 ExpMxC= 4.57D+02 IAcc=1 IRadAn=         1 AccDes= 0.00D+00
 Harris functional with IExCor=  402 and IRadAn=       1 diagonalized for initial guess.
 HarFok:  IExCor=  402 AccDes= 0.00D+00 IRadAn=         1 IDoV= 1 UseB2=F ITyADJ=14
 ICtDFT=  3500011 ScaDFX=  1.000000  1.000000  1.000000  1.000000
 FoFCou: FMM=F IPFlag=           0 FMFlag=      100000 FMFlg1=           0
         NFxFlg=           0 DoJE=T BraDBF=F KetDBF=T FulRan=T
         wScrn=  0.000000 ICntrl=     500 IOpCl=  0 I1Cent=   200000004 NGrid=           0
         NMat0=    1 NMatS0=      1 NMatT0=    0 NMatD0=    1 NMtDS0=    0 NMtDT0=    0
 Symmetry not used in FoFCou.
 Harris En= -40.5590960400182    
 Leave Link  401 at Tue Feb  7 16:57:38 2017, MaxMem=  1048576000 cpu:         2.1
 (Enter /mnt/data/applications/G09/g09/l502.exe)
 Closed shell SCF:
 Using DIIS extrapolation, IDIIS=  1040.
 Two-electron integral symmetry not used.
 Keep R1 ints in memory in canonical form, NReq=912373.
 IVT=       13969 IEndB=       13969 NGot=  1048576000 MDV=  1048523806
 LenX=  1048523806 LenY=  1048522836
 Requested convergence on RMS density matrix=1.00D-08 within 100 cycles.
 Requested convergence on MAX density matrix=1.00D-06.
 Requested convergence on             energy=1.00D-06.
 No special actions if energy rises.
 FoFCou: FMM=F IPFlag=           0 FMFlag=           0 FMFlg1=           0
         NFxFlg=           0 DoJE=F BraDBF=F KetDBF=F FulRan=T
         wScrn=  0.000000 ICntrl=     600 IOpCl=  0 I1Cent=           0 NGrid=           0
         NMat0=    1 NMatS0=    276 NMatT0=    0 NMatD0=    1 NMtDS0=    0 NMtDT0=    0
 Symmetry not used in FoFCou.
 Integral accuracy reduced to 1.0D-05 until final iterations.

 Cycle   1  Pass 0  IDiag  1:
 E= -40.5177307758655    
 DIIS: error= 3.55D-03 at cycle   1 NSaved=   1.
 NSaved= 1 IEnMin= 1 EnMin= -40.5177307758655     IErMin= 1 ErrMin= 3.55D-03
 ErrMax= 3.55D-03  0.00D+00 EMaxC= 1.00D-01 BMatC= 2.08D-04 BMatP= 2.08D-04
 IDIUse=3 WtCom= 9.65D-01 WtEn= 3.55D-02
 Coeff-Com:  0.100D+01
 Coeff-En:   0.100D+01
 Coeff:      0.100D+01
 Gap=     2.204 Goal=   None    Shift=    0.000
 GapD=    2.204 DampG=2.000 DampE=1.000 DampFc=2.0000 IDamp=-1.
 RMSDP=9.76D-04 MaxDP=7.11D-03              OVMax= 9.18D-03

 Cycle   2  Pass 0  IDiag  1:
 E= -40.5179061442177     Delta-E=       -0.000175368352 Rises=F Damp=F
 DIIS: error= 2.81D-03 at cycle   2 NSaved=   2.
 NSaved= 2 IEnMin= 2 EnMin= -40.5179061442177     IErMin= 2 ErrMin= 2.81D-03
 ErrMax= 2.81D-03  0.00D+00 EMaxC= 1.00D-01 BMatC= 1.36D-04 BMatP= 2.08D-04
 IDIUse=3 WtCom= 9.72D-01 WtEn= 2.81D-02
 Coeff-Com:  0.435D+00 0.565D+00
 Coeff-En:   0.153D+00 0.847D+00
 Coeff:      0.427D+00 0.573D+00
 Gap=     0.504 Goal=   None    Shift=    0.000
 RMSDP=4.93D-04 MaxDP=3.73D-03 DE=-1.75D-04 OVMax= 4.50D-03

 Cycle   3  Pass 0  IDiag  1:
 E= -40.5180369453782     Delta-E=       -0.000130801160 Rises=F Damp=F
 DIIS: error= 6.71D-04 at cycle   3 NSaved=   3.
 NSaved= 3 IEnMin= 3 EnMin= -40.5180369453782     IErMin= 3 ErrMin= 6.71D-04
 ErrMax= 6.71D-04  0.00D+00 EMaxC= 1.00D-01 BMatC= 8.47D-06 BMatP= 1.36D-04
 IDIUse=3 WtCom= 9.93D-01 WtEn= 6.71D-03
 Coeff-Com: -0.666D-02 0.195D+00 0.812D+00
 Coeff-En:   0.000D+00 0.000D+00 0.100D+01
 Coeff:     -0.661D-02 0.194D+00 0.813D+00
 Gap=     0.504 Goal=   None    Shift=    0.000
 RMSDP=9.30D-05 MaxDP=8.02D-04 DE=-1.31D-04 OVMax= 9.14D-04

 Cycle   4  Pass 0  IDiag  1:
 E= -40.5180453708358     Delta-E=       -0.000008425458 Rises=F Damp=F
 DIIS: error= 1.49D-05 at cycle   4 NSaved=   4.
 NSaved= 4 IEnMin= 4 EnMin= -40.5180453708358     IErMin= 4 ErrMin= 1.49D-05
 ErrMax= 1.49D-05  0.00D+00 EMaxC= 1.00D-01 BMatC= 6.35D-09 BMatP= 8.47D-06
 IDIUse=1 WtCom= 1.00D+00 WtEn= 0.00D+00
 Coeff-Com: -0.302D-02 0.154D-01 0.703D-01 0.917D+00
 Coeff:     -0.302D-02 0.154D-01 0.703D-01 0.917D+00
 Gap=     0.504 Goal=   None    Shift=    0.000
 RMSDP=5.40D-06 MaxDP=1.88D-05 DE=-8.43D-06 OVMax= 4.81D-05

 Initial convergence to 1.0D-05 achieved.  Increase integral accuracy.
 Cycle   5  Pass 1  IDiag  1:
 E= -40.5180555016320     Delta-E=       -0.000010130796 Rises=F Damp=F
 DIIS: error= 5.19D-06 at cycle   1 NSaved=   1.
 NSaved= 1 IEnMin= 1 EnMin= -40.5180555016320     IErMin= 1 ErrMin= 5.19D-06
 ErrMax= 5.19D-06  0.00D+00 EMaxC= 1.00D-01 BMatC= 5.30D-10 BMatP= 5.30D-10
 IDIUse=1 WtCom= 1.00D+00 WtEn= 0.00D+00
 Coeff-Com:  0.100D+01
 Coeff:      0.100D+01
 Gap=     0.504 Goal=   None    Shift=    0.000
 RMSDP=5.40D-06 MaxDP=1.88D-05 DE=-1.01D-05 OVMax= 1.66D-05

 Cycle   6  Pass 1  IDiag  1:
 E= -40.5180555021597     Delta-E=       -0.000000000528 Rises=F Damp=F
 DIIS: error= 1.87D-06 at cycle   2 NSaved=   2.
 NSaved= 2 IEnMin= 2 EnMin= -40.5180555021597     IErMin= 2 ErrMin= 1.87D-06
 ErrMax= 1.87D-06  0.00D+00 EMaxC= 1.00D-01 BMatC= 7.76D-11 BMatP= 5.30D-10
 IDIUse=1 WtCom= 1.00D+00 WtEn= 0.00D+00
 Coeff-Com:  0.267D+00 0.733D+00
 Coeff:      0.267D+00 0.733D+00
 Gap=     0.504 Goal=   None    Shift=    0.000
 RMSDP=4.19D-07 MaxDP=2.07D-06 DE=-5.28D-10 OVMax= 4.50D-06

 Cycle   7  Pass 1  IDiag  1:
 E= -40.5180555022483     Delta-E=       -0.000000000089 Rises=F Damp=F
 DIIS: error= 8.46D-08 at cycle   3 NSaved=   3.
 NSaved= 3 IEnMin= 3 EnMin= -40.5180555022483     IErMin= 3 ErrMin= 8.46D-08
 ErrMax= 8.46D-08  0.00D+00 EMaxC= 1.00D-01 BMatC= 1.91D-13 BMatP= 7.76D-11
 IDIUse=1 WtCom= 1.00D+00 WtEn= 0.00D+00
 Coeff-Com: -0.162D-01 0.444D-02 0.101D+01
 Coeff:     -0.162D-01 0.444D-02 0.101D+01
 Gap=     0.504 Goal=   None    Shift=    0.000
 RMSDP=2.75D-08 MaxDP=1.42D-07 DE=-8.86D-11 OVMax= 2.58D-07

 Cycle   8  Pass 1  IDiag  1:
 E= -40.5180555022485     Delta-E=        0.000000000000 Rises=F Damp=F
 DIIS: error= 1.53D-08 at cycle   4 NSaved=   4.
 NSaved= 4 IEnMin= 4 EnMin= -40.5180555022485     IErMin= 4 ErrMin= 1.53D-08
 ErrMax= 1.53D-08  0.00D+00 EMaxC= 1.00D-01 BMatC= 3.84D-15 BMatP= 1.91D-13
 IDIUse=1 WtCom= 1.00D+00 WtEn= 0.00D+00
 Coeff-Com: -0.392D-02-0.281D-02 0.165D+00 0.841D+00
 Coeff:     -0.392D-02-0.281D-02 0.165D+00 0.841D+00
 Gap=     0.504 Goal=   None    Shift=    0.000
 RMSDP=3.80D-09 MaxDP=2.99D-08 DE=-2.13D-13 OVMax= 3.60D-08

 SCF Done:  E(RB3LYP) =  -40.5180555022     A.U. after    8 cycles
            NFock=  8  Conv=0.38D-08     -V/T= 2.0118
 KE= 4.004559084014D+01 PE=-1.196894237481D+02 EE= 2.579172047918D+01
 Leave Link  502 at Tue Feb  7 16:57:39 2017, MaxMem=  1048576000 cpu:         2.8
 (Enter /mnt/data/applications/G09/g09/l701.exe)
 Compute integral first derivatives.
 ... and contract with generalized density number  0.
 Leave Link  701 at Tue Feb  7 16:57:39 2017, MaxMem=  1048576000 cpu:         1.7
 (Enter /mnt/data/applications/G09/g09/l702.exe)
 L702 exits ... SP integral derivatives will be done elsewhere.
 Leave Link  702 at Tue Feb  7 16:57:39 2017, MaxMem=  1048576000 cpu:         0.3
 (Enter /mnt/data/applications/G09/g09/l703.exe)
 Compute integral first derivatives, UseDBF=F ICtDFT=           0.
 Integral derivatives from FoFJK, PRISM(SPDF).
 Calling FoFJK, ICntrl=      2127 FMM=F ISym2X=0 I1Cent= 0 IOpClX= 0 NMat=1 NMatS=1 NMatT=0.
 FoFJK:  IHMeth= 1 ICntrl=    2127 DoSepK=F KAlg= 0 I1Cent=   0 FoldK=F
 IRaf=         0 NMat=   1 IRICut=       1 DoRegI=T DoRafI=F ISym2E= 0.
 FoFCou: FMM=F IPFlag=           0 FMFlag=      100000 FMFlg1=         800
         NFxFlg=           0 DoJE=F BraDBF=F KetDBF=F FulRan=T
         wScrn=  0.000000 ICntrl=    2127 IOpCl=  0 I1Cent=           0 NGrid=           0
         NMat0=    1 NMatS0=      1 NMatT0=    0 NMatD0=    1 NMtDS0=    0 NMtDT0=    0
 Symmetry not used in FoFCou.
 Leave Link  703 at Tue Feb  7 16:57:39 2017, MaxMem=  1048576000 cpu:         2.3
 (Enter /mnt/data/applications/G09/g09/l716.exe)
 Dipole        =-3.86099755D-03-5.47577923D-03-9.46838539D-03
 Cartesian Forces:  Max     0.009594861 RMS     0.001858175
 Leave Link  716 at Tue Feb  7 16:57:39 2017, MaxMem=  1048576000 cpu:         0.3
 (Enter /mnt/data/applications/G09/g09/l120.exe)
 SvSCFP is copying densities from files   528 and   530 to   603.
 ONIOM: saving gridpoint  2
 ONIOM: restoring gridpoint  1
 ONIOM: restoring gridpoint  1 on chk file.
 ONIOM: generating point  1 -- low level on model system.
 Leave Link  120 at Tue Feb  7 16:57:40 2017, MaxMem=  1048576000 cpu:         0.3
 (Enter /mnt/data/applications/G09/g09/l301.exe)
 Standard basis: Dummy (5D, 7F)
     5 basis functions,     5 primitive gaussians,     5 cartesian basis functions
     3 alpha electrons        3 beta electrons
       nuclear repulsion energy         5.6250304863 Hartrees.
 IExCor=    0 DFT=F Ex=HF Corr=None ExCW=0 ScaHFX=  1.000000
 ScaDFX=  1.000000  1.000000  1.000000  1.000000 ScalE2=  1.000000  1.000000
 IRadAn=      0 IRanWt=     -1 IRanGd=            0 ICorTp=0 IEmpDi=  4
 NAtoms=   17 NActive=    5 NUniq=    5 SFac= 1.00D+00 NAtFMM=   60 NAOKFM=F Big=F
 Integral buffers will be    131072 words long.
 Raffenetti 1 integral format.
 Two-electron integral symmetry is turned off.
 Leave Link  301 at Tue Feb  7 16:57:40 2017, MaxMem=  1048576000 cpu:         0.4
 (Enter /mnt/data/applications/G09/g09/l402.exe)
 UFF calculation of energy and first derivatives.
 Energy per function type:
 Direct Coulomb + vdW (small)                           0.000000000
 Direct Coulomb (large)                                 0.000000000
 Direct vdW (large)                                   265.169378093
 Non-direct Coulomb + vdW (small)                       0.000000000
 Non-direct Coulomb (large)                             0.000000000
 Non-direct vdW (large)                              -265.169378093
 Harmonic stretch III                                   0.000362085
 UFF 3-term bend                                        0.000112203
 Energy per function class:
        Coulomb               0.000000000
    Vanderwaals               0.000000000
     Stretching               0.000362085
        Bending               0.000112203
 Energy=    4.742880437E-04 NIter=   0.
 Dipole moment=       0.000000       0.000000       0.000000
 Leave Link  402 at Tue Feb  7 16:57:40 2017, MaxMem=  1048576000 cpu:         0.3
 (Enter /mnt/data/applications/G09/g09/l716.exe)
 Dipole        = 0.00000000D+00 0.00000000D+00 0.00000000D+00
 Cartesian Forces:  Max     0.008474467 RMS     0.002169607
 Leave Link  716 at Tue Feb  7 16:57:40 2017, MaxMem=  1048576000 cpu:         0.3
 (Enter /mnt/data/applications/G09/g09/l120.exe)
 ONIOM: saving gridpoint  1
 ONIOM: restoring gridpoint  3
 ONIOM: calculating energy.
 ONIOM: gridpoint  1 method:  low   system:  model energy:     0.000474288044
 ONIOM: gridpoint  2 method:  high  system:  model energy:   -40.518055502249
 ONIOM: gridpoint  3 method:  low   system:  real  energy:     0.009282539916
 ONIOM: extrapolated energy =     -40.509247250376
 ONIOM: calculating first derivatives.
 ONIOM: calculating electric field derivatives.
 ONIOM: Integrating ONIOM file  4 number   619
 ONIOM: Dipole        =-3.86099755D-03-5.47577923D-03-9.46838539D-03
 ONIOM: Dipole moment (Debye):
    X=    -0.0098    Y=    -0.0139    Z=    -0.0241  Tot=     0.0295
 ONIOM: Integrating ONIOM file  5 number   695
 Leave Link  120 at Tue Feb  7 16:57:40 2017, MaxMem=  1048576000 cpu:         0.0
 (Enter /mnt/data/applications/G09/g09/l716.exe)
 Dipole        =-3.86099755D-03-5.47577923D-03-9.46838539D-03
 -------------------------------------------------------------------
 Center     Atomic                   Forces (Hartrees/Bohr)
 Number     Number              X              Y              Z
 -------------------------------------------------------------------
      1        6           0.001783820    0.002520472    0.004377654
      2        1           0.000165405   -0.000798481   -0.000196180
      3        1           0.000162602    0.000232862   -0.000784862
      4        1          -0.000804786   -0.000113507   -0.000190749
      5        6          -0.000186734   -0.000264814   -0.000458349
      6        6          -0.009059082    0.000112784    0.000198532
      7        1           0.001643313    0.002635979   -0.004468996
      8        1           0.001547269    0.002592195    0.004492932
      9        1           0.001643146   -0.005187626    0.000044919
     10        6           0.003127105   -0.008504153    0.000186958
     11        1           0.001929521    0.002322200    0.004492348
     12        1           0.001935132    0.002428970   -0.004468924
     13        1          -0.005439076   -0.000182009    0.000045232
     14        6           0.003125667    0.004430782   -0.007262228
     15        1           0.001929269    0.002727487    0.004258667
     16        1          -0.005438786    0.000131361   -0.000132592
     17        1           0.001936215   -0.005084502   -0.000134362
 -------------------------------------------------------------------
 Cartesian Forces:  Max     0.009059082 RMS     0.003263294
 Leave Link  716 at Tue Feb  7 16:57:40 2017, MaxMem=  1048576000 cpu:         0.3
 (Enter /mnt/data/applications/G09/g09/l103.exe)

 GradGradGradGradGradGradGradGradGradGradGradGradGradGradGradGradGradGrad
 Berny optimization.
 Using GEDIIS/GDIIS optimizer.
 FormGI is forming the generalized inverse of G from B-inverse, IUseBI=4.
 Internal  Forces:  Max     0.005433976 RMS     0.002031018
 Search for a local minimum.
 Step number   2 out of a maximum of   92
 All quantities printed in internal units (Hartrees-Bohrs-Radians)
 RMS Force = .20310D-02 SwitMx=.10000D-02 MixMth= 1
 Mixed Optimization -- RFO/linear search
 Update second derivatives using D2CorX and points    1    2
 DE= -9.93D-03 DEPred=-8.99D-03 R= 1.10D+00
 TightC=F SS=  1.41D+00  RLast= 2.23D-01 DXNew= 5.0454D-01 6.6981D-01
 Trust test= 1.10D+00 RLast= 2.23D-01 DXMaxT set to 5.05D-01
 ITU=  1  0
 Use linear search instead of GDIIS.
     Eigenvalues ---    0.00237   0.00237   0.00237   0.00237   0.04739
     Eigenvalues ---    0.04739   0.04739   0.05490   0.05490   0.05490
     Eigenvalues ---    0.05490   0.05490   0.05490   0.05534   0.05534
     Eigenvalues ---    0.14387   0.14387   0.15974   0.16000   0.16000
     Eigenvalues ---    0.16000   0.16000   0.16000   0.16000   0.16000
     Eigenvalues ---    0.16000   0.16000   0.16000   0.16778   0.26241
     Eigenvalues ---    0.28519   0.28519   0.28601   0.32833   0.37230
     Eigenvalues ---    0.37230   0.37230   0.37230   0.37230   0.37230
     Eigenvalues ---    0.37230   0.37230   0.37230   0.37230   0.38445
 RFO step:  Lambda=-7.19291524D-04 EMin= 2.36824082D-03
 Quartic linear search produced a step of  0.20040.
 Iteration  1 RMS(Cart)=  0.00966568 RMS(Int)=  0.00003219
 Iteration  2 RMS(Cart)=  0.00002829 RMS(Int)=  0.00002465
 Iteration  3 RMS(Cart)=  0.00000000 RMS(Int)=  0.00002465
 ITry= 1 IFail=0 DXMaxC= 2.79D-02 DCOld= 1.00D+10 DXMaxT= 5.05D-01 DXLimC= 3.00D+00 Rises=F
 Variable       Old X    -DE/DX   Delta X   Delta X   Delta X     New X
                                 (Linear)    (Quad)   (Total)
    R1        2.06791   0.00081   0.00920  -0.00484   0.00436   2.07227
    R2        2.06791   0.00081   0.00920  -0.00485   0.00435   2.07226
    R3        2.06790   0.00081   0.00920  -0.00485   0.00435   2.07225
    R4        2.89904  -0.00392  -0.00223  -0.01463  -0.01687   2.88217
    R5        2.92304  -0.00423   0.00258  -0.01985  -0.01727   2.90576
    R6        2.92304  -0.00423   0.00258  -0.01986  -0.01728   2.90576
    R7        2.92304  -0.00423   0.00258  -0.01986  -0.01728   2.90576
    R8        2.08203   0.00543   0.01203   0.00774   0.01977   2.10180
    R9        2.08203   0.00540   0.01203   0.00763   0.01966   2.10168
   R10        2.08203   0.00543   0.01203   0.00774   0.01977   2.10180
   R11        2.08203   0.00540   0.01203   0.00763   0.01966   2.10168
   R12        2.08203   0.00543   0.01203   0.00774   0.01977   2.10180
   R13        2.08203   0.00543   0.01203   0.00774   0.01977   2.10179
   R14        2.08203   0.00540   0.01203   0.00763   0.01966   2.10168
   R15        2.08203   0.00543   0.01203   0.00774   0.01977   2.10180
   R16        2.08203   0.00543   0.01203   0.00774   0.01977   2.10180
    A1        1.89284  -0.00022  -0.00357   0.00144  -0.00216   1.89068
    A2        1.89286  -0.00022  -0.00356   0.00144  -0.00216   1.89070
    A3        1.92805   0.00021   0.00349  -0.00135   0.00211   1.93017
    A4        1.89284  -0.00021  -0.00357   0.00145  -0.00215   1.89069
    A5        1.92813   0.00021   0.00351  -0.00142   0.00206   1.93018
    A6        1.92813   0.00021   0.00351  -0.00141   0.00206   1.93020
    A7        1.91062   0.00010   0.00000   0.00261   0.00261   1.91323
    A8        1.91065   0.00010   0.00000   0.00257   0.00257   1.91322
    A9        1.91063   0.00010   0.00000   0.00259   0.00259   1.91322
   A10        1.91063  -0.00010   0.00000  -0.00257  -0.00259   1.90804
   A11        1.91063  -0.00010   0.00000  -0.00259  -0.00260   1.90804
   A12        1.91064  -0.00010   0.00000  -0.00260  -0.00261   1.90803
   A13        1.93228  -0.00027   0.00434  -0.00547  -0.00118   1.93109
   A14        1.93228  -0.00045   0.00434  -0.00728  -0.00299   1.92929
   A15        1.93227  -0.00027   0.00434  -0.00547  -0.00119   1.93108
[...]
 ! D20   D(1,5,10,12)          -60.0212         -DE/DX =    0.0                 !
 ! D21   D(1,5,10,13)           60.0166         -DE/DX =    0.0                 !
 ! D22   D(6,5,10,11)          -59.9288         -DE/DX =    0.0                 !
 ! D23   D(6,5,10,12)           60.0519         -DE/DX =    0.0                 !
 ! D24   D(6,5,10,13)         -179.9103         -DE/DX =    0.0                 !
 ! D25   D(14,5,10,11)          59.9244         -DE/DX =    0.0                 !
 ! D26   D(14,5,10,12)         179.9052         -DE/DX =    0.0                 !
 ! D27   D(14,5,10,13)         -60.0571         -DE/DX =    0.0                 !
 ! D28   D(1,5,14,15)          179.996          -DE/DX =    0.0                 !
 ! D29   D(1,5,14,16)          -60.0231         -DE/DX =    0.0                 !
 ! D30   D(1,5,14,17)           60.0146         -DE/DX =    0.0                 !
 ! D31   D(6,5,14,15)           59.9231         -DE/DX =    0.0                 !
 ! D32   D(6,5,14,16)          179.9041         -DE/DX =    0.0                 !
 ! D33   D(6,5,14,17)          -60.0583         -DE/DX =    0.0                 !
 ! D34   D(10,5,14,15)         -59.9301         -DE/DX =    0.0                 !
 ! D35   D(10,5,14,16)          60.0508         -DE/DX =    0.0                 !
 ! D36   D(10,5,14,17)        -179.9116         -DE/DX =    0.0                 !
 --------------------------------------------------------------------------------
 GradGradGradGradGradGradGradGradGradGradGradGradGradGradGradGradGradGrad

 Leave Link  103 at Tue Feb  7 16:58:01 2017, MaxMem=  1048576000 cpu:         0.1
 (Enter /mnt/data/applications/G09/g09/l9999.exe)
 1\1\GINC-KIMIK2083\Freq\ONIOM(B3LYP/6-31G(d):UFF)\Mixed\C5H12\IFUNES\0
 7-Feb-2017\0\\#P Geom=AllCheck Guess=TCheck SCRF=Check GenChk ONIOM(B3
 LYP/6-31G(d):UFF) Freq\\ONIOM(QM:MM) OPT FREQ with SICTWO V1.0\\0,1\C,
 0.447454991,-2.9526379112,0.0052622734\H,0.8025443892,-3.989030453,-0.
 0136872651\H,0.8020859929,-2.4507761787,-0.9018850015\H,-0.6480170872,
 -2.9638379337,-0.0135671015\C,0.9568682358,-2.2320665784,1.2529728374\
 C,2.4975825151,-2.2313394991,1.2544012792\H,2.8903302682,-1.7109761157
 ,0.3541035115\H,2.888178499,-1.7108892999,2.1555366639\H,2.8902305139,
 -3.2712402184,1.2552881713\C,0.4441321281,-0.7791734634,1.2541561209\H
 ,0.8044748081,-0.2373921994,2.1553255268\H,0.8040909214,-0.2355464404,
 0.3538977277\H,-0.6671748032,-0.7554985058,1.2547817887\C,0.4439950257
 ,-2.9570908098,2.511981003\H,0.8044197417,-2.4473848276,3.4316402813\H
 ,-0.6673149001,-2.9681768103,2.5327954883\H,0.8037576101,-4.0086125952
 ,2.5329019647\\Version=EM64L-G09RevD.01\HF=0.0004496\RMSD=0.000e+00\RM
 SF=9.537e-06\ZeroPoint=0.1648863\Thermal=0.1706654\Dipole=-0.0036676,-
 0.0051982,-0.008994\DipoleDeriv=0.0162741,-0.0063294,-0.0109317,-0.006
 3368,0.0118037,-0.0154575,-0.010929,-0.015457,-0.0060423,0.049815,0.06
 78558,-0.0029952,0.0707279,-0.1278207,-0.0020784,-0.0013356,-0.0067661
 ,0.069612,0.0498851,-0.0364704,0.0572055,-0.0364701,0.0240425,0.080939
 7,0.0605116,0.0856255,-0.0823475,-0.1516158,-0.0006119,-0.0009324,-0.0
 03478,0.0736285,-0.0035167,-0.0059086,-0.0035194,0.0695549,0.0356416,-
 0.0244441,-0.0423462,-0.024443,0.018346,-0.0598871,-0.0423384,-0.05988
 3,-0.050777,0.,0.,0.,0.,0.,0.,0.,0.,0.,0.,0.,0.,0.,0.,0.,0.,0.,0.,0.,0
 .,0.,0.,0.,0.,0.,0.,0.,0.,0.,0.,0.,0.,0.,0.,0.,0.,0.,0.,0.,0.,0.,0.,0.
 ,0.,0.,0.,0.,0.,0.,0.,0.,0.,0.,0.,0.,0.,0.,0.,0.,0.,0.,0.,0.,0.,0.,0.,
 0.,0.,0.,0.,0.,0.,0.,0.,0.,0.,0.,0.,0.,0.,0.,0.,0.,0.,0.,0.,0.,0.,0.,0
 .,0.,0.,0.,0.,0.,0.,0.,0.,0.,0.,0.,0.,0.,0.,0.,0.,0.,0.\Polar=12.38655
 1,0.0541592,12.4246305,0.0936138,0.1323415,12.5775472\PG=C01 [X(C5H12)
 ]\NImag=0\\0.62576323,-0.00249316,0.62391198,-0.00432768,-0.00612043,0
 .61691357,-0.08257698,0.08235092,-0.00622697,0.08591806,0.08220074,-0.
 29137472,-0.00547801,-0.08819370,0.31478543,-0.00631228,-0.00523528,-0
 .06295895,0.00647809,0.00856940,0.06625706,-0.08250541,-0.04651674,0.0
 6812543,0.00352195,0.00485494,-0.01102765,0.08583724,-0.04651874,-0.11
 544853,0.09639858,-0.01196308,-0.01341034,0.02649009,0.04964331,0.1210
 1872,0.06795010,0.09615946,-0.23898991,-0.00131093,-0.00076404,0.00144
 711,-0.07305207,-0.10336961,0.26015381,-0.31991448,-0.00185761,-0.0030
 5391,-0.00929730,-0.00040683,0.00013732,-0.00928001,0.00032260,-0.0002
 8148,0.34480526,-0.00170673,-0.05406158,-0.00769808,0.03306077,0.00226
 320,0.00008449,-0.01649963,-0.00060890,-0.00149173,0.00349057,0.055920
 34,-0.00279608,-0.00769602,-0.06294034,0.00003661,0.00015826,-0.001398
 66,0.02864934,-0.00155881,0.00144295,0.00588218,0.00896004,0.06624442,
 -0.15119838,-0.02788551,-0.04828664,0.00494549,0.00383187,0.01230564,0
 .00493236,0.00874069,0.00945975,-0.00535326,-0.01660887,-0.02876319,0.
 74144958,-0.02788368,-0.17091498,-0.06828969,-0.01296790,-0.00987910,-
 0.02615811,0.00874290,0.01111973,0.01338254,0.00018738,0.00041348,0.00
 287300,0.00187345,0.74278030,-0.04828334,-0.06829568,-0.24974153,0.002
 60431,0.00126499,0.00374199,-0.00992967,-0.01404363,-0.01724802,0.0003
 2476,0.00288175,0.00374578,0.00325442,0.00459759,0.74808719,0.00003972
 ,-0.00000701,-0.00001217,-0.00176595,-0.00217251,-0.00156735,-0.001763
 50,-0.00027076,-0.00266056,-0.00006400,-0.00001371,-0.00002376,-0.3121
 9915,-0.00002761,-0.00006653,0.62250878,-0.01912158,0.00368834,0.00567
 686,-0.00239696,-0.00200310,-0.00148779,-0.00004623,0.00013476,-0.0003
 4436,-0.00001379,0.00022984,-0.00014301,0.00001233,-0.13526701,-0.0001
 5543,0.00012908,0.60824843,-0.03310876,0.00567876,0.01023802,-0.001437
 73,-0.00157943,-0.00092285,-0.00279023,-0.00025269,-0.00305512,-0.0000
 2371,-0.00014305,0.00006475,0.00000201,-0.00015517,-0.13544655,0.00022
 180,0.00009812,0.60836094,-0.00375405,-0.00206434,-0.00058018,-0.00001
 196,-0.00000691,-0.00000111,-0.00103423,-0.00039688,-0.00067379,0.0000
 1253,0.00000538,0.00000158,-0.00001584,-0.01397664,0.02420091,-0.10017
 625,-0.03598174,0.06227093,0.09556542,-0.00206460,-0.00097820,-0.00015
 813,-0.00000691,-0.00001317,-0.00000122,-0.00039688,-0.00005457,-0.000
 23870,0.00000538,-0.00000075,0.00000056,0.00000323,0.00237973,-0.00469
 957,-0.03617950,-0.10851215,0.09270410,0.03905918,0.09998025,-0.000580
 05,-0.00043151,0.00030397,-0.00000111,-0.00000122,-0.00000583,-0.00067
 379,-0.00023870,-0.00031923,0.00000158,0.00000056,-0.00000249,-0.00000
 504,-0.00472174,0.00784115,0.06259326,0.09267676,-0.21530227,-0.067382
 65,-0.09617729,0.21081010,-0.00003700,-0.00001611,-0.00002793,0.000002
 61,0.00000574,0.00000546,0.00000261,0.00000186,0.00000770,0.00000394,0
 .00000175,0.00000303,0.00002907,-0.01399618,-0.02423259,-0.09989375,-0
 .03578841,-0.06196731,0.00700788,0.00850679,0.00797398,0.09517811,-0.0
 0001611,0.00022313,-0.00015087,0.00000574,0.00000362,0.00000597,0.0000
 0186,-0.00000198,0.00000273,0.00000175,-0.00000038,0.00000107,-0.00000
 547,0.00238492,0.00469076,-0.03598633,-0.10854966,-0.09276836,0.008480
 77,0.01190078,0.01057820,0.03875987,0.10001934,-0.00002793,-0.00015088
 ,0.00004903,0.00000546,0.00000597,0.00000304,0.00000770,0.00000273,0.0
 0000864,0.00000303,0.00000107,0.00000086,-0.00000944,0.00468921,0.0077
 9444,-0.06231029,-0.09276866,-0.21559474,-0.00793562,-0.01056054,-0.00
 956575,0.06711344,0.09627724,0.21111293,-0.00375299,0.00052938,-0.0020
 7786,-0.00103598,-0.00038584,-0.00068213,-0.00001189,0.00000246,-0.000
 00647,0.00001253,-0.00000132,0.00000545,-0.00001318,0.02794794,-0.0000
 1343,-0.10016253,0.07190268,-0.00005321,0.00703484,-0.01116158,-0.0033
 8239,0.00700635,-0.01111161,0.00338061,0.09555224,0.00052963,0.0002388
 6,0.00027095,-0.00038584,-0.00004642,-0.00023453,0.00000246,-0.0000066
 0,0.00000254,-0.00000132,-0.00000254,-0.00000047,-0.00000497,0.0105526
 6,-0.00000536,0.07228070,-0.26889086,0.00016916,0.00264655,-0.00419751
 ,-0.00127159,0.00265516,-0.00421248,0.00128204,-0.07786738,0.26640960,
 -0.00207798,0.00054434,-0.00091341,-0.00068213,-0.00023453,-0.00032838
 ,-0.00000647,0.00000254,-0.00001231,0.00000545,-0.00000047,-0.00000070
 ,0.00000030,0.00001835,-0.00033444,-0.00006350,0.00019680,-0.05493805,
 -0.01135641,0.01981584,0.00649922,0.01135118,-0.01985855,0.00654914,0.
 00016602,-0.00017958,0.04439719,0.00928936,-0.01584539,0.00535830,0.00
 020580,0.00008173,-0.00012695,0.00002393,0.00058584,0.00056264,-0.0005
 3932,-0.00196039,-0.00087766,-0.15490979,0.05560420,-0.00013374,-0.000
 01798,0.03801595,0.00004177,-0.00363379,0.00149773,0.00144660,-0.00366
 124,0.00150991,-0.00146085,-0.00003433,0.00002938,-0.00000030,0.609753
 00,0.00326493,-0.00556807,0.00188264,0.00008165,-0.00003997,-0.0000700
 6,0.00036139,-0.00165510,-0.00262736,-0.00173585,-0.00322326,-0.001969
 11,0.05556537,-0.29255594,-0.00008780,-0.00000634,0.01341605,0.0000143
 4,0.00149748,-0.00027268,-0.00055080,0.00151016,-0.00027584,0.00055714
 ,0.00002938,-0.00003542,-0.00000034,-0.00438293,0.62100253,0.01638715,
 -0.02932408,0.01024458,-0.00012690,-0.00007009,0.00006475,0.00069226,-
 0.00271900,-0.00305975,-0.00100734,-0.00187744,-0.00092021,-0.00015665
 ,-0.00002375,-0.13544578,-0.00000048,0.00004879,0.00049137,0.00144673,
 -0.00082187,-0.00039123,-0.00146098,0.00082781,-0.00039509,-0.00000030
 ,0.00000017,0.00030734,0.00001716,0.00023880,0.60835929,0.00020441,0.0
 0006920,-0.00013293,-0.00000100,0.,0.,-0.00000265,0.,0.,-0.00000010,0.
 00000478,0.00000380,0.00651882,0.00229036,0.01249731,-0.00160086,0.002
 23817,0.00126681,-0.00001024,0.00000322,0.00000393,-0.00099070,0.00075
 897,-0.00000011,0.00000253,-0.00000742,-0.00000220,-0.08500871,-0.0307
 2142,-0.06678485,0.07509525,0.00006920,-0.00001825,-0.00007659,0.,0.00
 000456,0.00000322,0.,0.00000327,0.00000817,0.00000478,0.00000633,0.000
 00714,-0.01169609,-0.00411030,-0.02128610,0.00223838,-0.00233619,-0.00
 110086,0.00000322,-0.00000795,-0.00000278,0.00075897,-0.00045413,0.000
 00008,-0.00000742,0.00000822,0.00000320,-0.03052316,-0.12342108,-0.089
 35417,0.03165747,0.12008836,-0.00013292,-0.00007659,0.00004899,0.,0.00
 000322,0.00000086,0.,0.00000817,0.00000864,0.00000380,0.00000714,0.000
 00303,0.00442504,0.00155528,0.00779997,0.00101155,-0.00119094,-0.00039
 446,0.00000393,-0.00000278,-0.00000908,-0.00000011,0.00000008,0.000082
 57,-0.00000220,0.00000320,-0.00000162,-0.06667020,-0.08967753,-0.21560
 895,0.06837656,0.09537518,0.21112722,0.00001077,-0.00073374,0.00004427
 ,-0.00000266,0.,0.,0.00008620,-0.00000114,-0.00000065,-0.00000866,-0.0
 0000568,-0.00000076,0.00650804,0.00230691,-0.01249609,-0.00158687,0.00
 222132,-0.00125759,-0.00097106,0.00074374,-0.00000010,-0.00001024,0.00
 000323,-0.00000394,0.00000252,-0.00000740,0.00000220,-0.08494656,-0.03
 080102,0.06668838,0.00602049,0.00815446,-0.00730980,0.07497900,-0.0007
 3353,-0.00474191,-0.00059915,0.,0.00001444,0.00000167,-0.00000114,-0.0
 0117682,-0.00071599,-0.00000568,-0.00001630,-0.00000144,-0.01167769,-0
 .00413845,0.02124991,0.00222111,-0.00231989,0.00109099,0.00074374,-0.0
 0044541,0.00000007,0.00000323,-0.00000797,0.00000279,-0.00000740,0.000
 00821,-0.00000320,-0.03060303,-0.12375870,0.08958911,0.00813477,0.0128
 8849,-0.01100131,0.03178807,0.12058434,-0.00021354,-0.00069014,0.00030
 402,0.,0.00000167,-0.00000249,-0.00000065,-0.00071599,-0.00031968,-0.0
 0000076,-0.00000144,-0.00000583,-0.00444948,-0.00157663,0.00783547,-0.
 00100199,0.00118120,-0.00039188,-0.00000010,0.00000007,0.00008058,-0.0
 0000394,0.00000279,-0.00000909,0.00000220,-0.00000320,-0.00000162,0.06
 655464,0.08988370,-0.21528590,0.00731946,0.01104327,-0.00956596,-0.068
 26041,-0.09556484,0.21079477,-0.00053761,0.00166685,0.00094783,-0.0000
 0004,-0.00000577,-0.00000226,-0.00000876,0.00000361,0.00000460,0.00008
 590,0.00001086,0.00000624,0.00060002,0.00021175,-0.00000038,-0.0000537
 6,0.00002251,0.00000018,0.00001223,-0.00000397,-0.00000375,0.00001226,
 -0.00000399,0.00000376,0.00000380,-0.00000337,0.,-0.29545517,0.0032574
 9,0.00012106,-0.00030453,0.00006843,0.00008063,-0.00028011,0.00006398,
 -0.00007337,0.29636702,0.00166664,-0.00297779,-0.00186841,-0.00000577,
 0.00001003,0.00000498,0.00000361,-0.00000980,-0.00000530,0.00001086,-0
 .00116636,-0.00071929,0.02816465,0.00993951,-0.00000884,0.00002251,-0.
 00001599,-0.00000020,-0.00000397,-0.00000150,0.00000101,-0.00000399,-0
 .00000150,-0.00000101,-0.00000337,0.00000142,0.,0.00287939,-0.07359783
 ,0.00000854,-0.01370007,0.00310417,0.00361191,-0.01374232,0.00311151,-
 0.00361582,-0.00689242,0.06559221,0.00120562,-0.00177743,-0.00091261,-
 0.00000226,0.00000498,-0.00000071,0.00000460,-0.00000530,-0.00001238,0
 .00000624,-0.00071929,-0.00032712,0.00001496,0.00000555,-0.00033449,-0
 .00000028,-0.00000036,0.00030734,-0.00000375,0.00000101,-0.00000162,0.
 00000376,-0.00000101,-0.00000162,0.,0.,-0.00000096,0.00015047,0.000008
 08,-0.05493729,-0.02250626,0.00408534,0.00654328,0.02246706,-0.0041037
 8,0.00650512,-0.00016560,0.00009171,0.04439541,0.00929164,0.01255995,-
 0.01104713,0.00002330,0.00019437,0.00078864,0.00020586,-0.00015070,0.0
 0000726,-0.00054033,0.00021913,-0.00214010,-0.15491947,-0.02790983,0.0
 4810730,-0.00002160,-0.01896199,0.03294787,-0.00003433,-0.00001493,0.0
 0002531,-0.00366102,-0.00201941,0.00057753,-0.00363475,0.00050499,0.00
 202037,0.00924126,0.00327452,-0.01622676,0.00000523,-0.00072398,0.0002
 1310,0.00020270,0.00006886,0.00013168,-0.00051385,0.00160729,-0.001173
 45,0.60975213,0.01256368,0.01817191,-0.01562403,0.00041891,-0.00039350
 ,-0.00198833,-0.00015078,0.00009921,0.00001031,-0.00000532,0.00017024,
 0.00007925,-0.02790983,-0.17463324,0.06800702,0.00000342,0.00369396,-0
 .00556488,-0.00001493,0.00022182,0.00014856,-0.00201966,-0.00096439,0.
 00043012,0.00050524,0.00023251,-0.00053056,-0.01569453,-0.00556250,0.0
 2920948,-0.00072378,-0.00463139,0.00068836,0.00006887,-0.00001525,0.00
 007339,0.00160708,-0.00288678,0.00172823,0.00220579,0.61131152,0.01102
 011,0.01558111,-0.01349759,0.00065897,-0.00189666,-0.00431355,0.000007
 31,0.00001028,-0.00007448,-0.00201048,-0.00001239,-0.00432070,0.048062
 18,0.06794253,-0.25335936,-0.00000683,-0.00559717,0.01021710,0.0000253
 1,0.00014807,0.00005010,0.00057766,0.00015944,0.00029390,0.00202024,-0
 .00025950,-0.00089630,-0.00527345,-0.00186935,0.01021067,-0.00004214,0
 .00059828,0.00029384,0.00013119,0.00007322,0.00005014,-0.00091782,0.00
 181844,-0.00089698,-0.00378621,-0.00535402,0.61805256,0.00020438,-0.00
 014972,-0.00000648,-0.00000264,0.,0.,-0.00000100,0.,0.,-0.00000010,0.0
 0000091,0.00000604,0.00652215,0.00968112,0.00823194,-0.00160144,-0.000
 02128,0.00257240,0.00000253,0.00000180,-0.00000753,-0.00099090,-0.0003
 7942,0.00065740,-0.00001025,0.00000180,0.00000477,0.00000529,0.0003249
 3,-0.00064754,0.00008257,-0.00000003,0.00000002,-0.00000257,0.,0.,-0.0
 0000795,0.00000260,-0.00000335,-0.08502209,-0.04249566,-0.06000131,0.0
 7511012,-0.00014974,0.00009855,-0.00000923,0.,0.00000022,0.00000641,0.
 ,-0.00000100,0.,0.00000091,-0.00000232,0.00000215,0.00967938,0.0133628
 5,0.01163828,-0.00024246,0.00011270,0.00022190,0.00000180,-0.00000194,
 -0.00000266,-0.00037942,-0.00005152,0.00023236,0.00000180,-0.00000639,
 -0.00000188,0.00054612,-0.00149298,0.00249848,-0.00000003,-0.00112469,
 0.00069722,0.,0.00000317,-0.00000799,0.00000260,-0.00000868,0.00000385
 ,-0.04249575,-0.11506578,-0.08485451,0.04340714,0.10579680,-0.00000649
 ,-0.00000922,-0.00006777,0.,0.00000641,0.00001168,0.,0.,0.00000642,0.0
 0000604,0.00000215,0.00001168,-0.00792074,-0.01120028,-0.00967651,0.00
 244503,0.00031200,-0.00284386,-0.00000753,-0.00000266,0.00000854,0.000
 65740,0.00023236,-0.00032001,0.00000477,-0.00000188,-0.00001066,-0.000
 52016,0.00240837,-0.00284352,0.00000002,0.00069722,-0.00032009,0.,-0.0
 0000799,0.00000854,-0.00000335,0.00000385,-0.00001064,-0.05977277,-0.0
 8453091,-0.22395068,0.06160761,0.08712752,0.22540385,-0.00053762,-0.00
 001192,0.00191712,-0.00000873,0.00000215,0.00000537,-0.00000004,0.0000
 0092,-0.00000612,0.00008609,-0.00000002,0.00001265,0.00059732,-0.00010
 584,0.00018238,-0.00005377,-0.00001105,0.00001961,0.00000380,0.0000016
 8,-0.00000292,0.00001226,0.00000524,-0.00000157,0.00001223,-0.00000126
 ,-0.00000531,-0.00051447,-0.00159893,0.00093382,-0.00000796,-0.0000042
 2,0.00000058,-0.00000003,0.00000470,-0.00000375,0.00008059,-0.00000007
 ,0.00000004,-0.29545571,-0.00148000,0.00288237,-0.00030677,0.00003611,
 0.00010021,0.29636808,0.00021149,0.00014969,0.00002675,0.00000215,-0.0
 0000713,-0.00000373,0.00000092,-0.00000233,-0.00000216,-0.00000002,0.0
 0008618,0.00000284,-0.01406314,0.00223586,-0.00444124,-0.00001148,0.00
 022682,0.00013973,0.00000168,-0.00000036,-0.00000103,0.00000524,-0.000
 00072,-0.00000056,-0.00000126,-0.00000246,0.00000045,-0.00182042,-0.00
 292954,0.00170416,-0.00000422,-0.00001351,0.00000108,0.00000470,0.0000
 0616,-0.00000696,-0.00000007,-0.00110243,0.00068330,-0.00126541,-0.059
 60571,0.00808137,-0.01264629,0.00235464,0.00365120,0.00325630,0.049610
 54,0.00204578,-0.00006426,-0.00403896,0.00000537,-0.00000373,-0.000014
 93,-0.00000612,-0.00000216,0.00001166,0.00001265,0.00000284,-0.0015823
 8,0.02440135,-0.00445994,0.00737186,0.00001936,0.00013991,0.00006453,-
 0.00000292,-0.00000103,0.00000083,-0.00000157,-0.00000056,-0.00000241,
 -0.00000531,0.00000045,-0.00000066,0.00080626,0.00179439,-0.00085481,0
 .00000058,0.00000108,-0.00000583,-0.00000375,-0.00000696,0.00000298,0.
 00000004,0.00068330,-0.00031408,0.00256973,0.00808180,-0.06892970,-0.0
 2311429,0.00318209,0.00729513,-0.00605309,-0.00912888,0.06037924,0.000
 01101,0.00040494,-0.00061307,0.00008604,0.,-0.00000079,-0.00000266,0.,
 0.,-0.00000869,0.00000220,-0.00000537,0.00650622,-0.01197835,-0.004247
 57,-0.00158709,-0.00219901,0.00129516,0.00000252,0.00000560,-0.0000053
 1,-0.00001023,-0.00000501,0.00000082,-0.00097117,-0.00037169,0.0006440
 1,0.00020272,0.00007919,0.00012523,-0.00000257,0.,0.,-0.00000096,0.,0.
 ,-0.00000004,-0.00000559,0.00000220,-0.08491898,0.07312150,0.00665293,
 0.00601867,-0.01040848,0.00340995,-0.00027528,0.02632982,-0.00067407,0
 .07495048,0.00018155,-0.00039843,0.00181686,0.,0.00008594,0.00001281,0
 .,0.00000029,-0.00000649,0.00000220,-0.00000722,0.00000386,0.00198060,
 -0.00367003,-0.00130663,-0.00197750,-0.00185605,0.00144753,0.00000560,
 0.00000361,-0.00000585,-0.00000501,-0.00001120,0.00000091,-0.00037169,
 -0.00005078,0.00022760,0.00007959,-0.00002968,0.00006506,0.,0.00001411
 ,-0.00000167,0.,0.00000440,-0.00000309,-0.00000559,0.00000981,-0.00000
 486,0.07290709,-0.27014264,0.00543089,0.00227209,-0.00397363,0.0013118
 6,-0.00009381,0.00899430,-0.00021834,-0.07497513,0.27102720,-0.0007417
 1,0.00190786,-0.00404111,-0.00000079,0.00001281,-0.00158014,0.,-0.0000
 0649,0.00001165,-0.00000537,0.00000386,-0.00001504,-0.01233447,0.02152
 127,0.00736883,0.00142273,0.00135729,-0.00085427,-0.00000531,-0.000005
 85,0.00000298,0.00000082,0.00000091,-0.00000583,0.00064401,0.00022760,
 -0.00031378,0.00012546,0.00006490,0.00006455,0.,-0.00000167,-0.0000024
 1,0.,-0.00000309,0.00000083,0.00000220,-0.00000486,-0.00000066,0.00675
 764,0.00513622,-0.06892895,0.01070031,-0.02073398,0.00729789,0.0000186
 1,-0.00070633,0.00061751,-0.00658414,-0.00877044,0.06037793\\0.0000069
 5,0.00001023,0.00001731,0.00000730,-0.00000174,0.00001142,0.00000747,0
 .00001084,0.00000405,-0.00000447,0.00000690,0.00001137,-0.00000745,-0.
 00001055,-0.00001818,0.00001254,-0.00000353,-0.00000559,-0.00000791,-0
 .00000853,0.00001251,-0.00000660,-0.00000782,-0.00001285,-0.00000827,0
 .00001449,-0.00000086,-0.00000691,0.00001087,-0.00000546,-0.00000438,-
 0.00000871,-0.00001280,-0.00000449,-0.00001033,0.00001253,0.00001705,-
 0.00000222,-0.00000078,-0.00000730,-0.00001016,0.00000658,-0.00000466,
 -0.00000667,-0.00001409,0.00001659,0.00000096,-0.00000259,-0.00000545,
 0.00001597,-0.00000258\\\@


 A true friend is someone who is there for
 you when he'd rather be anywhere else.
                               -- Len Wein
 Job cpu time:       0 days  0 hours  0 minutes 36.2 seconds.
 File lengths (MBytes):  RWF=      5 Int=      0 D2E=      0 Chk=      2 Scr=      1
 Normal termination of Gaussian 09 at Tue Feb  7 16:58:01 2017.
