 Entering Gaussian System, Link 0=g09
 Initial command:
 /mnt/data/applications/G09/g09/l1.exe "/scratch/Gau-27787.inp" -scrdir="/scratch/"
 Entering Link 1 = /mnt/data/applications/G09/g09/l1.exe PID=     27788.
  
 Copyright (c) 1988,1990,1992,1993,1995,1998,2003,2009,2013,
            Gaussian, Inc.  All Rights Reserved.
  
 This is part of the Gaussian(R) 09 program.  It is based on
 the Gaussian(R) 03 system (copyright 2003, Gaussian, Inc.),
 the Gaussian(R) 98 system (copyright 1998, Gaussian, Inc.),
 the Gaussian(R) 94 system (copyright 1995, Gaussian, Inc.),
 the Gaussian 92(TM) system (copyright 1992, Gaussian, Inc.),
 the Gaussian 90(TM) system (copyright 1990, Gaussian, Inc.),
 the Gaussian 88(TM) system (copyright 1988, Gaussian, Inc.),
 the Gaussian 86(TM) system (copyright 1986, Carnegie Mellon
 University), and the Gaussian 82(TM) system (copyright 1983,
 Carnegie Mellon University). Gaussian is a federally registered
 trademark of Gaussian, Inc.
  
 This software contains proprietary and confidential information,
 including trade secrets, belonging to Gaussian, Inc.
  
 This software is provided under written license and may be
 used, copied, transmitted, or stored only in accord with that
 written license.
  
 The following legend is applicable only to US Government
 contracts under FAR:
  
                    RESTRICTED RIGHTS LEGEND
  
 Use, reproduction and disclosure by the US Government is
 subject to restrictions as set forth in subparagraphs (a)
 and (c) of the Commercial Computer Software - Restricted
 Rights clause in FAR 52.227-19.
  
 Gaussian, Inc.
 340 Quinnipiac St., Bldg. 40, Wallingford CT 06492
  
  
 ---------------------------------------------------------------
 Warning -- This program may not be used in any manner that
 competes with the business of Gaussian, Inc. or will provide
 assistance to any competitor of Gaussian, Inc.  The licensee
 of this program is prohibited from giving any competitor of
 Gaussian, Inc. access to this program.  By using this program,
 the user acknowledges that Gaussian, Inc. is engaged in the
 business of creating and licensing software in the field of
 computational chemistry and represents and warrants to the
 licensee that it is not a competitor of Gaussian, Inc. and that
 it will not use this program in any manner prohibited above.
 ---------------------------------------------------------------
  

 Cite this work as:
 Gaussian 09, Revision D.01,
 M. J. Frisch, G. W. Trucks, H. B. Schlegel, G. E. Scuseria, 
 M. A. Robb, J. R. Cheeseman, G. Scalmani, V. Barone, B. Mennucci, 
 G. A. Petersson, H. Nakatsuji, M. Caricato, X. Li, H. P. Hratchian, 
 A. F. Izmaylov, J. Bloino, G. Zheng, J. L. Sonnenberg, M. Hada, 
 M. Ehara, K. Toyota, R. Fukuda, J. Hasegawa, M. Ishida, T. Nakajima, 
 Y. Honda, O. Kitao, H. Nakai, T. Vreven, J. A. Montgomery, Jr., 
 J. E. Peralta, F. Ogliaro, M. Bearpark, J. J. Heyd, E. Brothers, 
 K. N. Kudin, V. N. Staroverov, T. Keith, R. Kobayashi, J. Normand, 
 K. Raghavachari, A. Rendell, J. C. Burant, S. S. Iyengar, J. Tomasi, 
 M. Cossi, N. Rega, J. M. Millam, M. Klene, J. E. Knox, J. B. Cross, 
 V. Bakken, C. Adamo, J. Jaramillo, R. Gomperts, R. E. Stratmann, 
 O. Yazyev, A. J. Austin, R. Cammi, C. Pomelli, J. W. Ochterski, 
 R. L. Martin, K. Morokuma, V. G. Zakrzewski, G. A. Voth, 
 P. Salvador, J. J. Dannenberg, S. Dapprich, A. D. Daniels, 
 O. Farkas, J. B. Foresman, J. V. Ortiz, J. Cioslowski, 
 and D. J. Fox, Gaussian, Inc., Wallingford CT, 2013.
 
 ******************************************
 Gaussian 09:  EM64L-G09RevD.01 24-Apr-2013
                 7-Feb-2017 
 ******************************************
 %nprocshared=8
 Will use up to    8 processors via shared memory.
 %mem=8000MB
 %chk=A_3_UFF
 ----------------------------------------------------------------------
 #p opt=nomicro oniom(B3LYP/6-31G*:UFF) geom=connectivity nosymm scf(ma
 xcyc=100)
 ----------------------------------------------------------------------
 1/14=-1,18=20,19=15,38=1,52=2,56=1,57=2,61=3,64=2/1,3;
 2/9=110,12=2,15=1,17=6,18=5,40=1/2;
 1/14=-1,18=20,19=15,38=1,52=2,53=3172,61=3,64=2/20;
 3/5=30,11=9,16=1,25=1,30=1,41=10200000,43=2,71=1/1;
 4/20=10,22=1,23=100,24=3/2;
 7/7=1,30=1,33=-1,44=-1/16;
 1/14=-1,18=20,19=15,26=1,52=2,53=2032,61=3/20;
 3/5=1,6=6,7=1,11=2,16=1,25=1,30=1,71=1,74=-5/1,2,3;
 4//1;
 5/5=2,7=100,38=5/2;
 6/7=2,8=2,9=2,10=2,28=1/1;
 7/7=1,30=1,33=-1/1,2,3,16;
 1/14=-1,18=20,19=15,52=2,53=1022,61=3,64=2/20;
 3/5=30,11=9,16=1,25=1,30=1,41=10200000,43=2,71=1/1;
 4/20=10,22=1,23=100,24=3/2;
 7/7=1,30=1,33=-1,44=-1/16;
 1/14=-1,18=20,19=15,52=2,53=3015,61=3,64=2/20;
 7/9=1,44=-1/16;
 1/14=-1,18=20,19=15,52=2,61=3,64=2/3(2);
 2/9=110,15=1/2;
 99//99;
 2/9=110,15=1/2;
 1/14=-1,18=20,19=15,52=2,53=3173,61=3,64=2/20;
 3/5=30,11=9,16=1,25=1,30=1,41=10200000,43=2,71=1/1;
 4/16=2,20=10,22=1,23=100,24=3/2;
 7/7=1,30=1,33=-1,44=-1/16;
 1/14=-1,18=20,19=15,26=1,52=2,53=2033,61=3/20;
 3/5=1,6=6,7=1,11=2,16=1,25=1,30=1,71=1,74=-5/1,2,3;
 4/5=5,16=3,69=1/1;
 5/5=2,7=100,38=5/2;
 7/7=1,30=1,33=-1/1,2,3,16;
 1/14=-1,18=20,19=15,52=2,53=1023,61=3,64=2/20;
 3/5=30,11=9,16=1,25=1,30=1,41=10200000,43=2,71=1/1;
 4/16=2,20=10,22=1,23=100,24=3/2;
 7/7=1,30=1,33=-1,44=-1/16;
 1/14=-1,18=20,19=15,52=2,53=3015,61=3,64=2/20;
 7/9=1,44=-1/16;
 1/14=-1,18=20,19=15,52=2,61=3,64=2/3(-16);
 2/9=110,15=1/2;
 99//99;
 Leave Link    1 at Tue Feb  7 16:33:57 2017, MaxMem=  1048576000 cpu:         0.7
 (Enter /mnt/data/applications/G09/g09/l101.exe)
 --------------------------------------
 ONIOM(QM:MM) OPT FREQ with SICTWO V1.0
 --------------------------------------
 Symbolic Z-matrix:
 Charge =  0 Multiplicity = 1 for low   level calculation on real  system.
 Charge =  0 Multiplicity = 1 for high  level calculation on model system.
 Charge =  0 Multiplicity = 1 for low   level calculation on model system.
 C-C_3                0     0.44534  -2.95547   0.       H 
 H-H_                 0     0.802    -3.96428   0.       H 
 H-H_                 0     0.80202  -2.45107  -0.87365  H 
 H-H_                 0    -0.62466  -2.95545   0.       H 
 C-C_3                0     0.95869  -2.22951   1.2574   L    H-H_     1     0.        0. 
 H-H_                 0     0.60205  -1.22069   1.2574   L 
 H-H_                 0     0.602    -2.7339    2.13106  L 
 C-C_3                0     2.49869  -2.22955   1.25742  L 
 H-H_                 0     2.85537  -1.72684   0.3828   L 
 H-H_                 0     2.85536  -1.72348   2.1301   L 
 H-H_                 0     2.85532  -3.23837   1.25937  L 
 
 NAtoms=     11 NQM=        5 NQMF=       0 NMMI=      6 NMMIF=      0
                NMic=       0 NMicF=      0.
                    Isotopes and Nuclear Properties:
 (Nuclear quadrupole moments (NQMom) in fm**2, nuclear magnetic moments (NMagM)
  in nuclear magnetons)

  Atom         1           2           3           4           5           6           7           8           9          10
 IAtWgt=          12           1           1           1          12           1           1          12           1           1
 AtmWgt=  12.0000000   1.0078250   1.0078250   1.0078250  12.0000000   1.0078250   1.0078250  12.0000000   1.0078250   1.0078250
 NucSpn=           0           1           1           1           0           1           1           0           1           1
 AtZEff=   0.0000000   0.0000000   0.0000000   0.0000000   0.0000000   0.0000000   0.0000000   0.0000000   0.0000000   0.0000000
 NQMom=    0.0000000   0.0000000   0.0000000   0.0000000   0.0000000   0.0000000   0.0000000   0.0000000   0.0000000   0.0000000
 NMagM=    0.0000000   2.7928460   2.7928460   2.7928460   0.0000000   2.7928460   2.7928460   0.0000000   2.7928460   2.7928460
 AtZNuc=   6.0000000   1.0000000   1.0000000   1.0000000   6.0000000   1.0000000   1.0000000   6.0000000   1.0000000   1.0000000

  Atom        11
 IAtWgt=           1
 AtmWgt=   1.0078250
 NucSpn=           1
 AtZEff=   0.0000000
 NQMom=    0.0000000
 NMagM=    2.7928460
 AtZNuc=   1.0000000
 Generating MM parameters.
 Include all MM classes

 MM sanity checks:
 All charges sum to:                0.00000000
 Charges of atoms sum to:           0.00000000
 Layer 1 (S) has      5 atoms and charge   0.00000000 sum=   0.00000000
 Layer 2 (R) adds     6 atoms and charge   0.00000000 sum=   0.00000000
 MMInit generated parameter data with length LenPar=        1720.
 Leave Link  101 at Tue Feb  7 16:33:57 2017, MaxMem=  1048576000 cpu:         3.2
 (Enter /mnt/data/applications/G09/g09/l103.exe)

 GradGradGradGradGradGradGradGradGradGradGradGradGradGradGradGradGradGrad
 Berny optimization.
 Initialization pass.
                           ----------------------------
                           !    Initial Parameters    !
                           ! (Angstroms and Degrees)  !
 --------------------------                            --------------------------
 ! Name  Definition              Value          Derivative Info.                !
 --------------------------------------------------------------------------------
 ! R1    R(1,2)                  1.07           estimate D2E/DX2                !
 ! R2    R(1,3)                  1.07           estimate D2E/DX2                !
 ! R3    R(1,4)                  1.07           estimate D2E/DX2                !
 ! R4    R(1,5)                  1.54           estimate D2E/DX2                !
 ! R5    R(5,6)                  1.07           estimate D2E/DX2                !
 ! R6    R(5,7)                  1.07           estimate D2E/DX2                !
 ! R7    R(5,8)                  1.54           estimate D2E/DX2                !
 ! R8    R(8,9)                  1.07           estimate D2E/DX2                !
 ! R9    R(8,10)                 1.07           estimate D2E/DX2                !
 ! R10   R(8,11)                 1.07           estimate D2E/DX2                !
 ! A1    A(2,1,3)              109.4712         estimate D2E/DX2                !
 ! A2    A(2,1,4)              109.4712         estimate D2E/DX2                !
 ! A3    A(2,1,5)              109.4712         estimate D2E/DX2                !
 ! A4    A(3,1,4)              109.4712         estimate D2E/DX2                !
 ! A5    A(3,1,5)              109.4713         estimate D2E/DX2                !
 ! A6    A(4,1,5)              109.4712         estimate D2E/DX2                !
 ! A7    A(1,5,6)              109.4712         estimate D2E/DX2                !
 ! A8    A(1,5,7)              109.4712         estimate D2E/DX2                !
 ! A9    A(1,5,8)              109.4712         estimate D2E/DX2                !
 ! A10   A(6,5,7)              109.4712         estimate D2E/DX2                !
 ! A11   A(6,5,8)              109.4713         estimate D2E/DX2                !
 ! A12   A(7,5,8)              109.4712         estimate D2E/DX2                !
 ! A13   A(5,8,9)              109.4712         estimate D2E/DX2                !
 ! A14   A(5,8,10)             109.4712         estimate D2E/DX2                !
 ! A15   A(5,8,11)             109.4712         estimate D2E/DX2                !
 ! A16   A(9,8,10)             109.4713         estimate D2E/DX2                !
 ! A17   A(9,8,11)             109.4712         estimate D2E/DX2                !
 ! A18   A(10,8,11)            109.4712         estimate D2E/DX2                !
 ! D1    D(2,1,5,6)            179.9989         estimate D2E/DX2                !
 ! D2    D(2,1,5,7)            -60.0011         estimate D2E/DX2                !
 ! D3    D(2,1,5,8)             59.9989         estimate D2E/DX2                !
 ! D4    D(3,1,5,6)             59.9989         estimate D2E/DX2                !
 ! D5    D(3,1,5,7)            179.9989         estimate D2E/DX2                !
 ! D6    D(3,1,5,8)            -60.0011         estimate D2E/DX2                !
 ! D7    D(4,1,5,6)            -60.0011         estimate D2E/DX2                !
 ! D8    D(4,1,5,7)             59.9989         estimate D2E/DX2                !
 ! D9    D(4,1,5,8)            179.9989         estimate D2E/DX2                !
 ! D10   D(1,5,8,9)             59.89           estimate D2E/DX2                !
 ! D11   D(1,5,8,10)           179.89           estimate D2E/DX2                !
 ! D12   D(1,5,8,11)           -60.11           estimate D2E/DX2                !
 ! D13   D(6,5,8,9)            -60.11           estimate D2E/DX2                !
 ! D14   D(6,5,8,10)            59.89           estimate D2E/DX2                !
 ! D15   D(6,5,8,11)           179.89           estimate D2E/DX2                !
 ! D16   D(7,5,8,9)            179.89           estimate D2E/DX2                !
 ! D17   D(7,5,8,10)           -60.11           estimate D2E/DX2                !
 ! D18   D(7,5,8,11)            59.89           estimate D2E/DX2                !
 --------------------------------------------------------------------------------
 Trust Radius=3.00D-01 FncErr=1.00D-07 GrdErr=1.00D-07
 Number of steps in this run=     56 maximum allowed number of steps=    100.
 GradGradGradGradGradGradGradGradGradGradGradGradGradGradGradGradGradGrad

 Leave Link  103 at Tue Feb  7 16:33:58 2017, MaxMem=  1048576000 cpu:         0.1
 (Enter /mnt/data/applications/G09/g09/l202.exe)
                          Input orientation:                          
 ---------------------------------------------------------------------
 Center     Atomic      Atomic             Coordinates (Angstroms)
 Number     Number       Type             X           Y           Z
 ---------------------------------------------------------------------
      1          6    10061003        0.445344   -2.955466    0.000000
      2          1    10011000        0.801999   -3.964276    0.000000
      3          1    10011000        0.802017   -2.451067   -0.873652
      4          1    10011000       -0.624656   -2.955452    0.000000
      5          6    10061003        0.958686   -2.229509    1.257405
      6          1    10011000        0.602048   -1.220694    1.257395
      7          1    10011000        0.601998   -2.733897    2.131056
      8          6    10061003        2.498686   -2.229553    1.257419
      9          1    10011000        2.855375   -1.726844    0.382800
     10          1    10011000        2.855359   -1.723478    2.130100
     11          1    10011000        2.855325   -3.238366    1.259365
 ---------------------------------------------------------------------
                    Distance matrix (angstroms):
                    1          2          3          4          5
     1  C    0.000000
     2  H    1.070000   0.000000
     3  H    1.070000   1.747302   0.000000
     4  H    1.070000   1.747303   1.747303   0.000000
     5  C    1.540000   2.148263   2.148263   2.148263   0.000000
     6  H    2.148263   3.024610   2.468839   2.468852   1.070000
     7  H    2.148263   2.468853   3.024611   2.468839   1.070000
     8  C    2.514809   2.732968   2.732987   3.444314   1.540000
     9  H    2.732086   3.060880   2.513851   3.710340   2.148263
    10  H    3.444313   3.711441   3.710542   4.262111   2.148263
    11  H    2.733869   2.515769   3.063605   3.711645   2.148263
                    6          7          8          9         10
     6  H    0.000000
     7  H    1.747303   0.000000
     8  C    2.148263   2.148263   0.000000
     9  H    2.469532   3.024609   1.070000   0.000000
    10  H    2.468161   2.469531   1.070000   1.747303   0.000000
    11  H    3.024610   2.468161   1.070000   1.747303   1.747303
                   11
    11  H    0.000000
 Symmetry turned off by external request.
 Stoichiometry    C3H8
 Framework group  C1[X(C3H8)]
 Deg. of freedom    27
 Full point group                 C1      NOp   1
 Rotational constants (GHZ):     28.9413730      8.7001334      7.6203171
 Leave Link  202 at Tue Feb  7 16:33:58 2017, MaxMem=  1048576000 cpu:         0.0
 (Enter /mnt/data/applications/G09/g09/l120.exe)
 ONIOM: Cut between C /H     5 and C     1 factor= 0.723886 0.723886
 ONIOM: saving gridpoint 17
 ONIOM: generating point  3 -- low level on real system.
 Leave Link  120 at Tue Feb  7 16:33:58 2017, MaxMem=  1048576000 cpu:         0.0
 (Enter /mnt/data/applications/G09/g09/l301.exe)
 Standard basis: Dummy (5D, 7F)
    11 basis functions,    11 primitive gaussians,    11 cartesian basis functions
     7 alpha electrons        7 beta electrons
       nuclear repulsion energy        24.5892753038 Hartrees.
 IExCor=    0 DFT=F Ex=HF Corr=None ExCW=0 ScaHFX=  1.000000
 ScaDFX=  1.000000  1.000000  1.000000  1.000000 ScalE2=  1.000000  1.000000
 IRadAn=      0 IRanWt=     -1 IRanGd=            0 ICorTp=0 IEmpDi=  4
 NAtoms=   11 NActive=   11 NUniq=   11 SFac= 1.00D+00 NAtFMM=   60 NAOKFM=F Big=F
 Integral buffers will be    131072 words long.
 Raffenetti 1 integral format.
 Two-electron integral symmetry is turned off.
 Leave Link  301 at Tue Feb  7 16:33:58 2017, MaxMem=  1048576000 cpu:         0.4
 (Enter /mnt/data/applications/G09/g09/l402.exe)
 UFF calculation of energy and first derivatives.
 Energy per function type:
 Direct Coulomb + vdW (small)                           0.002004169
 Direct Coulomb (large)                                 0.000000000
 Direct vdW (large)                                   743.758154398
 Non-direct Coulomb + vdW (small)                       0.000000000
 Non-direct Coulomb (large)                             0.000000000
 Non-direct vdW (large)                              -743.758154398
 Harmonic stretch III                                   0.007306109
 UFF 3-term bend                                        0.000000000
 UFF torsion w/ sp3 V                                   0.000000028
 Energy per function class:
        Coulomb               0.000000000
    Vanderwaals               0.002004169
     Stretching               0.007306109
        Bending               0.000000000
        Torsion               0.000000028
 Energy=    9.310306000E-03 NIter=   0.
 Dipole moment=       0.000000       0.000000       0.000000
 Leave Link  402 at Tue Feb  7 16:33:58 2017, MaxMem=  1048576000 cpu:         0.3
 (Enter /mnt/data/applications/G09/g09/l716.exe)
 Dipole        = 0.00000000D+00 0.00000000D+00 0.00000000D+00
 Cartesian Forces:  Max     0.035004367 RMS     0.016143657
 Leave Link  716 at Tue Feb  7 16:33:58 2017, MaxMem=  1048576000 cpu:         0.3
 (Enter /mnt/data/applications/G09/g09/l120.exe)
 ONIOM: saving gridpoint  3
 ONIOM: restoring gridpoint 17
 ONIOM: generating point  2 -- high level on model system.
 Leave Link  120 at Tue Feb  7 16:33:58 2017, MaxMem=  1048576000 cpu:         0.0
 (Enter /mnt/data/applications/G09/g09/l301.exe)
 Standard basis: 6-31G(d) (6D, 7F)
 Ernie: Thresh=  0.10000D-02 Tol=  0.10000D-05 Strict=F.
    23 basis functions,    44 primitive gaussians,    23 cartesian basis functions
     5 alpha electrons        5 beta electrons
       nuclear repulsion energy        13.5485935903 Hartrees.
 IExCor=  402 DFT=T Ex+Corr=B3LYP ExCW=0 ScaHFX=  0.200000
 ScaDFX=  0.800000  0.720000  1.000000  0.810000 ScalE2=  1.000000  1.000000
 IRadAn=      0 IRanWt=     -1 IRanGd=            0 ICorTp=0 IEmpDi=  4
 NAtoms=   11 NActive=    5 NUniq=    5 SFac= 1.00D+00 NAtFMM=   60 NAOKFM=F Big=F
 Integral buffers will be    131072 words long.
 Raffenetti 2 integral format.
 Two-electron integral symmetry is turned off.
 Leave Link  301 at Tue Feb  7 16:33:58 2017, MaxMem=  1048576000 cpu:         0.5
 (Enter /mnt/data/applications/G09/g09/l302.exe)
 NPDir=0 NMtPBC=     1 NCelOv=     1 NCel=       1 NClECP=     1 NCelD=      1
         NCelK=      1 NCelE2=     1 NClLst=     1 CellRange=     0.0.
 One-electron integrals computed using PRISM.
 NBasis=    23 RedAO= T EigKep=  1.72D-02  NBF=    23
 NBsUse=    23 1.00D-06 EigRej= -1.00D+00 NBFU=    23
 Precomputing XC quadrature grid using
 IXCGrd= 4 IRadAn=           0 IRanWt=          -1 IRanGd=           0 AccXCQ= 0.00D+00.
 Generated NRdTot=       0 NPtTot=           0 NUsed=           0 NTot=          32
 NSgBfM=    23    23    23    23    23 MxSgAt=     5 MxSgA2=     5.
 Leave Link  302 at Tue Feb  7 16:33:59 2017, MaxMem=  1048576000 cpu:         1.7
 (Enter /mnt/data/applications/G09/g09/l303.exe)
 DipDrv:  MaxL=1.
 Leave Link  303 at Tue Feb  7 16:33:59 2017, MaxMem=  1048576000 cpu:         0.3
 (Enter /mnt/data/applications/G09/g09/l401.exe)
 ExpMin= 1.61D-01 ExpMax= 3.05D+03 ExpMxC= 4.57D+02 IAcc=1 IRadAn=         1 AccDes= 0.00D+00
 Harris functional with IExCor=  402 and IRadAn=       1 diagonalized for initial guess.
 HarFok:  IExCor=  402 AccDes= 0.00D+00 IRadAn=         1 IDoV= 1 UseB2=F ITyADJ=14
 ICtDFT=  3500011 ScaDFX=  1.000000  1.000000  1.000000  1.000000
 FoFCou: FMM=F IPFlag=           0 FMFlag=      100000 FMFlg1=           0
         NFxFlg=           0 DoJE=T BraDBF=F KetDBF=T FulRan=T
         wScrn=  0.000000 ICntrl=     500 IOpCl=  0 I1Cent=   200000004 NGrid=           0
         NMat0=    1 NMatS0=      1 NMatT0=    0 NMatD0=    1 NMtDS0=    0 NMtDT0=    0
 Symmetry not used in FoFCou.
 Harris En= -40.5645515994376    
 JPrj=0 DoOrth=F DoCkMO=F.
 Leave Link  401 at Tue Feb  7 16:33:59 2017, MaxMem=  1048576000 cpu:         1.5
 (Enter /mnt/data/applications/G09/g09/l502.exe)
 Closed shell SCF:
 Using DIIS extrapolation, IDIIS=  1040.
 Two-electron integral symmetry not used.
 Keep R1 ints in memory in canonical form, NReq=911977.
 IVT=       13957 IEndB=       13957 NGot=  1048576000 MDV=  1048523818
 LenX=  1048523818 LenY=  1048522848
 Requested convergence on RMS density matrix=1.00D-08 within 100 cycles.
 Requested convergence on MAX density matrix=1.00D-06.
 Requested convergence on             energy=1.00D-06.
 No special actions if energy rises.
 FoFCou: FMM=F IPFlag=           0 FMFlag=           0 FMFlg1=           0
         NFxFlg=           0 DoJE=F BraDBF=F KetDBF=F FulRan=T
         wScrn=  0.000000 ICntrl=     600 IOpCl=  0 I1Cent=           0 NGrid=           0
         NMat0=    1 NMatS0=    276 NMatT0=    0 NMatD0=    1 NMtDS0=    0 NMtDT0=    0
 Symmetry not used in FoFCou.
 Integral accuracy reduced to 1.0D-05 until final iterations.

 Cycle   1  Pass 0  IDiag  1:
 E= -40.4235783124349    
 DIIS: error= 6.90D-02 at cycle   1 NSaved=   1.
 NSaved= 1 IEnMin= 1 EnMin= -40.4235783124349     IErMin= 1 ErrMin= 6.90D-02
 ErrMax= 6.90D-02  0.00D+00 EMaxC= 1.00D-01 BMatC= 8.65D-02 BMatP= 8.65D-02
 IDIUse=3 WtCom= 3.10D-01 WtEn= 6.90D-01
 Coeff-Com:  0.100D+01
 Coeff-En:   0.100D+01
 Coeff:      0.100D+01
 Gap=     0.431 Goal=   None    Shift=    0.000
 GapD=    0.431 DampG=2.000 DampE=0.500 DampFc=1.0000 IDamp=-1.
 RMSDP=2.27D-02 MaxDP=1.59D-01              OVMax= 1.97D-01

 Cycle   2  Pass 0  IDiag  1:
 E= -40.4040709927710     Delta-E=        0.019507319664 Rises=F Damp=F
 DIIS: error= 7.34D-02 at cycle   2 NSaved=   2.
 NSaved= 2 IEnMin= 1 EnMin= -40.4235783124349     IErMin= 1 ErrMin= 6.90D-02
 ErrMax= 7.34D-02  0.00D+00 EMaxC= 1.00D-01 BMatC= 1.04D-01 BMatP= 8.65D-02
 IDIUse=2 WtCom= 0.00D+00 WtEn= 1.00D+00
 Coeff-En:   0.545D+00 0.455D+00
 Coeff:      0.545D+00 0.455D+00
 Gap=     0.497 Goal=   None    Shift=    0.000
 RMSDP=1.15D-02 MaxDP=7.19D-02 DE= 1.95D-02 OVMax= 9.85D-02

 Cycle   3  Pass 0  IDiag  1:
 E= -40.5168269274464     Delta-E=       -0.112755934675 Rises=F Damp=F
 DIIS: error= 3.26D-03 at cycle   3 NSaved=   3.
 NSaved= 3 IEnMin= 3 EnMin= -40.5168269274464     IErMin= 3 ErrMin= 3.26D-03
 ErrMax= 3.26D-03  0.00D+00 EMaxC= 1.00D-01 BMatC= 2.18D-04 BMatP= 8.65D-02
 IDIUse=3 WtCom= 9.67D-01 WtEn= 3.26D-02
 Coeff-Com:  0.133D-01-0.346D-01 0.102D+01
 Coeff-En:   0.000D+00 0.000D+00 0.100D+01
 Coeff:      0.129D-01-0.334D-01 0.102D+01
 Gap=     0.506 Goal=   None    Shift=    0.000
 RMSDP=4.54D-04 MaxDP=3.64D-03 DE=-1.13D-01 OVMax= 4.10D-03

 Cycle   4  Pass 0  IDiag  1:
 E= -40.5170391785415     Delta-E=       -0.000212251095 Rises=F Damp=F
 DIIS: error= 5.20D-05 at cycle   4 NSaved=   4.
 NSaved= 4 IEnMin= 4 EnMin= -40.5170391785415     IErMin= 4 ErrMin= 5.20D-05
 ErrMax= 5.20D-05  0.00D+00 EMaxC= 1.00D-01 BMatC= 6.72D-08 BMatP= 2.18D-04
 IDIUse=1 WtCom= 1.00D+00 WtEn= 0.00D+00
 Coeff-Com:  0.148D-02-0.151D-02 0.498D-01 0.950D+00
 Coeff:      0.148D-02-0.151D-02 0.498D-01 0.950D+00
 Gap=     0.507 Goal=   None    Shift=    0.000
 RMSDP=9.42D-06 MaxDP=4.02D-05 DE=-2.12D-04 OVMax= 9.94D-05

 Initial convergence to 1.0D-05 achieved.  Increase integral accuracy.
 Cycle   5  Pass 1  IDiag  1:
 E= -40.5170480118552     Delta-E=       -0.000008833314 Rises=F Damp=F
 DIIS: error= 8.47D-06 at cycle   1 NSaved=   1.
 NSaved= 1 IEnMin= 1 EnMin= -40.5170480118552     IErMin= 1 ErrMin= 8.47D-06
 ErrMax= 8.47D-06  0.00D+00 EMaxC= 1.00D-01 BMatC= 3.03D-09 BMatP= 3.03D-09
 IDIUse=1 WtCom= 1.00D+00 WtEn= 0.00D+00
 Coeff-Com:  0.100D+01
 Coeff:      0.100D+01
 Gap=     0.507 Goal=   None    Shift=    0.000
 RMSDP=9.42D-06 MaxDP=4.02D-05 DE=-8.83D-06 OVMax= 3.97D-05

 Cycle   6  Pass 1  IDiag  1:
 E= -40.5170480128289     Delta-E=       -0.000000000974 Rises=F Damp=F
 DIIS: error= 9.58D-06 at cycle   2 NSaved=   2.
 NSaved= 2 IEnMin= 2 EnMin= -40.5170480128289     IErMin= 1 ErrMin= 8.47D-06
 ErrMax= 9.58D-06  0.00D+00 EMaxC= 1.00D-01 BMatC= 2.06D-09 BMatP= 3.03D-09
 IDIUse=1 WtCom= 1.00D+00 WtEn= 0.00D+00
 Coeff-Com:  0.449D+00 0.551D+00
 Coeff:      0.449D+00 0.551D+00
 Gap=     0.507 Goal=   None    Shift=    0.000
 RMSDP=1.76D-06 MaxDP=1.36D-05 DE=-9.74D-10 OVMax= 1.91D-05

 Cycle   7  Pass 1  IDiag  1:
 E= -40.5170480148510     Delta-E=       -0.000000002022 Rises=F Damp=F
 DIIS: error= 1.78D-06 at cycle   3 NSaved=   3.
 NSaved= 3 IEnMin= 3 EnMin= -40.5170480148510     IErMin= 3 ErrMin= 1.78D-06
 ErrMax= 1.78D-06  0.00D+00 EMaxC= 1.00D-01 BMatC= 7.30D-11 BMatP= 2.06D-09
 IDIUse=1 WtCom= 1.00D+00 WtEn= 0.00D+00
 Coeff-Com:  0.141D+00 0.238D+00 0.622D+00
 Coeff:      0.141D+00 0.238D+00 0.622D+00
 Gap=     0.507 Goal=   None    Shift=    0.000
 RMSDP=3.04D-07 MaxDP=2.09D-06 DE=-2.02D-09 OVMax= 2.80D-06

 Cycle   8  Pass 1  IDiag  1:
 E= -40.5170480149248     Delta-E=       -0.000000000074 Rises=F Damp=F
 DIIS: error= 5.13D-08 at cycle   4 NSaved=   4.
 NSaved= 4 IEnMin= 4 EnMin= -40.5170480149248     IErMin= 4 ErrMin= 5.13D-08
 ErrMax= 5.13D-08  0.00D+00 EMaxC= 1.00D-01 BMatC= 9.20D-14 BMatP= 7.30D-11
 IDIUse=1 WtCom= 1.00D+00 WtEn= 0.00D+00
 Coeff-Com: -0.721D-02-0.354D-02 0.924D-02 0.100D+01
 Coeff:     -0.721D-02-0.354D-02 0.924D-02 0.100D+01
 Gap=     0.507 Goal=   None    Shift=    0.000
 RMSDP=1.79D-08 MaxDP=8.56D-08 DE=-7.38D-11 OVMax= 1.56D-07

 Cycle   9  Pass 1  IDiag  1:
 E= -40.5170480149249     Delta-E=        0.000000000000 Rises=F Damp=F
 DIIS: error= 4.91D-09 at cycle   5 NSaved=   5.
 NSaved= 5 IEnMin= 5 EnMin= -40.5170480149249     IErMin= 5 ErrMin= 4.91D-09
 ErrMax= 4.91D-09  0.00D+00 EMaxC= 1.00D-01 BMatC= 5.42D-16 BMatP= 9.20D-14
 IDIUse=1 WtCom= 1.00D+00 WtEn= 0.00D+00
 Coeff-Com: -0.143D-02-0.188D-02-0.279D-02 0.902D-01 0.916D+00
 Coeff:     -0.143D-02-0.188D-02-0.279D-02 0.902D-01 0.916D+00
 Gap=     0.507 Goal=   None    Shift=    0.000
 RMSDP=1.50D-09 MaxDP=1.06D-08 DE=-8.53D-14 OVMax= 1.80D-08

 SCF Done:  E(RB3LYP) =  -40.5170480149     A.U. after    9 cycles
            NFock=  9  Conv=0.15D-08     -V/T= 2.0095
 KE= 4.013675281510D+01 PE=-1.201797828572D+02 EE= 2.597738843683D+01
 Leave Link  502 at Tue Feb  7 16:33:59 2017, MaxMem=  1048576000 cpu:         3.0
 (Enter /mnt/data/applications/G09/g09/l601.exe)
 Copying SCF densities to generalized density rwf, IOpCl= 0 IROHF=0.

 **********************************************************************

            Population analysis using the SCF density.

 **********************************************************************

 Alpha  occ. eigenvalues --  -10.16186  -0.69426  -0.39355  -0.39355  -0.38625
 Alpha virt. eigenvalues --    0.12033   0.17366   0.18375   0.18375   0.52563
 Alpha virt. eigenvalues --    0.52563   0.53779   0.88722   0.91567   0.91567
 Alpha virt. eigenvalues --    0.97050   1.10358   1.65394   1.65394   2.22949
 Alpha virt. eigenvalues --    2.27576   2.27576   4.18825
          Condensed to atoms (all electrons):
               1          2          3          4          5
     1  C    5.088778   0.387215   0.387214   0.387214   0.382502
     2  H    0.387215   0.533735  -0.027944  -0.027943  -0.026185
     3  H    0.387214  -0.027944   0.533737  -0.027944  -0.026186
     4  H    0.387214  -0.027943  -0.027944   0.533738  -0.026186
     5  H    0.382502  -0.026185  -0.026186  -0.026186   0.546495
 Mulliken charges:
               1
     1  C   -0.632923
     2  H    0.161122
     3  H    0.161121
     4  H    0.161121
     5  H    0.149559
     6  H    0.000000
     7  H    0.000000
     8  C    0.000000
     9  H    0.000000
    10  H    0.000000
    11  H    0.000000
 Sum of Mulliken charges =   0.00000
 Mulliken charges with hydrogens summed into heavy atoms:
               1
     1  C    0.000000
     8  C    0.000000
 Electronic spatial extent (au):  <R**2>=            353.5838
 Charge=              0.0000 electrons
 Dipole moment (field-independent basis, Debye):
    X=             -0.0106    Y=             -0.0150    Z=             -0.0260  Tot=              0.0319
 Quadrupole moment (field-independent basis, Debye-Ang):
   XX=             -8.2329   YY=             -8.1320   ZZ=             -8.2108
   XY=              0.0283   XZ=             -0.0054   YZ=              0.0857
 Traceless Quadrupole moment (field-independent basis, Debye-Ang):
   XX=             -0.0410   YY=              0.0599   ZZ=             -0.0189
   XY=              0.0283   XZ=             -0.0054   YZ=              0.0857
 Octapole moment (field-independent basis, Debye-Ang**2):
  XXX=            -11.8012  YYY=             71.8652  ZZZ=             -0.1732  XYY=             -3.4011
  XXY=             24.2928  XXZ=             -0.0679  XZZ=             -3.3051  YZZ=             24.7639
  YYZ=             -0.3368  XYZ=              0.0347
 Hexadecapole moment (field-independent basis, Debye-Ang**3):
 XXXX=            -25.7371 YYYY=           -436.6275 ZZZZ=            -15.0355 XXXY=             34.7704
 XXXZ=             -0.1865 YYYX=             29.0674 YYYZ=              1.2863 ZZZX=             -0.1390
 ZZZY=              0.4244 XXYY=            -78.1307 XXZZ=             -6.4776 YYZZ=            -79.6138
 XXYZ=              0.1766 YYXZ=             -0.2044 ZZXY=             10.2820
 N-N= 1.354859359030D+01 E-N=-1.201797827930D+02  KE= 4.013675281510D+01
 No NMR shielding tensors so no spin-rotation constants.
 Leave Link  601 at Tue Feb  7 16:34:00 2017, MaxMem=  1048576000 cpu:         1.7
 (Enter /mnt/data/applications/G09/g09/l701.exe)
 Compute integral first derivatives.
 ... and contract with generalized density number  0.
 Leave Link  701 at Tue Feb  7 16:34:00 2017, MaxMem=  1048576000 cpu:         1.7
 (Enter /mnt/data/applications/G09/g09/l702.exe)
 L702 exits ... SP integral derivatives will be done elsewhere.
 Leave Link  702 at Tue Feb  7 16:34:00 2017, MaxMem=  1048576000 cpu:         0.3
 (Enter /mnt/data/applications/G09/g09/l703.exe)
 Compute integral first derivatives, UseDBF=F ICtDFT=           0.
 Integral derivatives from FoFJK, PRISM(SPDF).
 Calling FoFJK, ICntrl=      2127 FMM=F ISym2X=0 I1Cent= 0 IOpClX= 0 NMat=1 NMatS=1 NMatT=0.
 FoFJK:  IHMeth= 1 ICntrl=    2127 DoSepK=F KAlg= 0 I1Cent=   0 FoldK=F
 IRaf=         0 NMat=   1 IRICut=       1 DoRegI=T DoRafI=F ISym2E= 0.
 FoFCou: FMM=F IPFlag=           0 FMFlag=      100000 FMFlg1=         800
         NFxFlg=           0 DoJE=F BraDBF=F KetDBF=F FulRan=T
         wScrn=  0.000000 ICntrl=    2127 IOpCl=  0 I1Cent=           0 NGrid=           0
         NMat0=    1 NMatS0=      1 NMatT0=    0 NMatD0=    1 NMtDS0=    0 NMtDT0=    0
 Symmetry not used in FoFCou.
 Leave Link  703 at Tue Feb  7 16:34:00 2017, MaxMem=  1048576000 cpu:         2.3
 (Enter /mnt/data/applications/G09/g09/l716.exe)
 Dipole        =-4.18130221D-03-5.91660220D-03-1.02426456D-02
 Cartesian Forces:  Max     0.022392271 RMS     0.007262431
 Leave Link  716 at Tue Feb  7 16:34:01 2017, MaxMem=  1048576000 cpu:         0.3
 (Enter /mnt/data/applications/G09/g09/l120.exe)
 SvSCFP is copying densities from files   528 and   530 to   603.
 ONIOM: saving gridpoint  2
 ONIOM: restoring gridpoint 17
 ONIOM: generating point  1 -- low level on model system.
 Generating MM parameters for model system.
 Include all MM classes

 MM sanity checks:
 All charges sum to:                0.00000000
 Charges of atoms sum to:           0.00000000
 MMInit generated parameter data with length LenPar=         856.
 Leave Link  120 at Tue Feb  7 16:34:01 2017, MaxMem=  1048576000 cpu:         0.4
 (Enter /mnt/data/applications/G09/g09/l301.exe)
 Standard basis: Dummy (5D, 7F)
     5 basis functions,     5 primitive gaussians,     5 cartesian basis functions
     3 alpha electrons        3 beta electrons
       nuclear repulsion energy         5.7151347307 Hartrees.
 IExCor=    0 DFT=F Ex=HF Corr=None ExCW=0 ScaHFX=  1.000000
 ScaDFX=  1.000000  1.000000  1.000000  1.000000 ScalE2=  1.000000  1.000000
 IRadAn=      0 IRanWt=     -1 IRanGd=            0 ICorTp=0 IEmpDi=  4
 NAtoms=   11 NActive=    5 NUniq=    5 SFac= 1.00D+00 NAtFMM=   60 NAOKFM=F Big=F
 Integral buffers will be    131072 words long.
 Raffenetti 1 integral format.
 Two-electron integral symmetry is turned off.
 Leave Link  301 at Tue Feb  7 16:34:01 2017, MaxMem=  1048576000 cpu:         0.3
 (Enter /mnt/data/applications/G09/g09/l402.exe)
 UFF calculation of energy and first derivatives.
 Energy per function type:
 Direct Coulomb + vdW (small)                           0.000000000
 Direct Coulomb (large)                                 0.000000000
 Direct vdW (large)                                   326.720705359
 Non-direct Coulomb + vdW (small)                       0.000000000
 Non-direct Coulomb (large)                             0.000000000
 Non-direct vdW (large)                              -326.720705359
 Harmonic stretch III                                   0.002472458
 UFF 3-term bend                                        0.000000000
 Energy per function class:
        Coulomb               0.000000000
    Vanderwaals               0.000000000
     Stretching               0.002472458
        Bending               0.000000000
 Energy=    2.472457644E-03 NIter=   0.
 Dipole moment=       0.000000       0.000000       0.000000
 Leave Link  402 at Tue Feb  7 16:34:01 2017, MaxMem=  1048576000 cpu:         0.3
 (Enter /mnt/data/applications/G09/g09/l716.exe)
 Dipole        = 0.00000000D+00 0.00000000D+00 0.00000000D+00
 Cartesian Forces:  Max     0.022000862 RMS     0.007951540
 Leave Link  716 at Tue Feb  7 16:34:01 2017, MaxMem=  1048576000 cpu:         0.3
 (Enter /mnt/data/applications/G09/g09/l120.exe)
 ONIOM: saving gridpoint  1
 ONIOM: restoring gridpoint  3
 ONIOM: calculating energy.
 ONIOM: gridpoint  1 method:  low   system:  model energy:     0.002472457644
 ONIOM: gridpoint  2 method:  high  system:  model energy:   -40.517048014925
 ONIOM: gridpoint  3 method:  low   system:  real  energy:     0.009310306000
 ONIOM: extrapolated energy =     -40.510210166569
 ONIOM: calculating first derivatives.
 ONIOM: calculating electric field derivatives.
 ONIOM: Integrating ONIOM file  4 number   619
 ONIOM: Dipole        =-4.18130221D-03-5.91660220D-03-1.02426456D-02
 ONIOM: Dipole moment (Debye):
    X=    -0.0106    Y=    -0.0150    Z=    -0.0260  Tot=     0.0319
 ONIOM: Integrating ONIOM file  5 number   695
 Nuclear Quadrupole Tensors: 
                 1             2             3             4             5 
      1   0.104090D-01  0.113278D+00  0.113272D+00 -0.340137D+00  0.000000D+00
      2  -0.735897D-02  0.160491D+00 -0.803684D-01  0.197189D-03  0.000000D+00
      3   0.520312D-02 -0.283330D+00  0.564480D-01  0.170086D+00  0.000000D+00
      4  -0.127480D-01 -0.138274D-03  0.138927D+00  0.330435D-03  0.000000D+00
      5  -0.180278D-01  0.301576D-03  0.196467D+00 -0.298571D-04  0.000000D+00
      6  -0.156121D-01  0.170051D+00 -0.169720D+00  0.170051D+00  0.000000D+00
                 6             7             8             9            10 
      1   0.000000D+00  0.000000D+00  0.000000D+00  0.000000D+00  0.000000D+00
      2   0.000000D+00  0.000000D+00  0.000000D+00  0.000000D+00  0.000000D+00
      3   0.000000D+00  0.000000D+00  0.000000D+00  0.000000D+00  0.000000D+00
      4   0.000000D+00  0.000000D+00  0.000000D+00  0.000000D+00  0.000000D+00
      5   0.000000D+00  0.000000D+00  0.000000D+00  0.000000D+00  0.000000D+00
      6   0.000000D+00  0.000000D+00  0.000000D+00  0.000000D+00  0.000000D+00
                11 
      1   0.000000D+00
      2   0.000000D+00
      3   0.000000D+00
      4   0.000000D+00
      5   0.000000D+00
      6   0.000000D+00
 Saving ESP charges from gridpoint 2
 Leave Link  120 at Tue Feb  7 16:34:01 2017, MaxMem=  1048576000 cpu:         0.0
 (Enter /mnt/data/applications/G09/g09/l716.exe)
 Dipole        =-4.18130221D-03-5.91660220D-03-1.02426456D-02
 -------------------------------------------------------------------
 Center     Atomic                   Forces (Hartrees/Bohr)
 Number     Number              X              Y              Z
 -------------------------------------------------------------------
      1        6           0.008989467    0.016782591    0.029082277
      2        1           0.004342506   -0.017087695   -0.001077335
      3        1           0.004331546    0.007609823   -0.015339850
      4        1          -0.017137517   -0.000182553   -0.000310277
      5        6           0.022473749   -0.021024288   -0.036412140
      6        1          -0.008317396    0.021849272    0.000961482
      7        1          -0.008318409   -0.010079240    0.019409650
      8        6          -0.035004367    0.001356860    0.002347866
      9        1           0.010036446    0.011167700   -0.017693532
     10        1           0.008586478    0.010516341    0.018148394
     11        1           0.010017496   -0.020908812    0.000883464
 -------------------------------------------------------------------
 Cartesian Forces:  Max     0.036412140 RMS     0.015875626
 Leave Link  716 at Tue Feb  7 16:34:01 2017, MaxMem=  1048576000 cpu:         0.3
 (Enter /mnt/data/applications/G09/g09/l103.exe)

 GradGradGradGradGradGradGradGradGradGradGradGradGradGradGradGradGradGrad
 Berny optimization.
 FormGI is forming the generalized inverse of G from B-inverse, IUseBI=4.
 Internal  Forces:  Max     0.023372337 RMS     0.009358415
 Search for a local minimum.
 Step number   1 out of a maximum of   56
 All quantities printed in internal units (Hartrees-Bohrs-Radians)
 RMS Force = .93584D-02 SwitMx=.10000D-02 MixMth= 1
 Mixed Optimization -- RFO/linear search
 Second derivative matrix not updated -- first step.
 ITU=  0
     Eigenvalues ---    0.00237   0.00237   0.03840   0.04896   0.05720
     Eigenvalues ---    0.05720   0.05720   0.05720   0.07655   0.11701
     Eigenvalues ---    0.16000   0.16000   0.16000   0.16000   0.16000
     Eigenvalues ---    0.16000   0.21948   0.28519   0.28519   0.37230
     Eigenvalues ---    0.37230   0.37230   0.37230   0.37230   0.37230
     Eigenvalues ---    0.37230   0.37230
 RFO step:  Lambda=-1.13361128D-02 EMin= 2.36824112D-03
 Linear search not attempted -- first point.
 Iteration  1 RMS(Cart)=  0.03854706 RMS(Int)=  0.00086628
 Iteration  2 RMS(Cart)=  0.00078302 RMS(Int)=  0.00011028
 Iteration  3 RMS(Cart)=  0.00000074 RMS(Int)=  0.00011028
 ITry= 1 IFail=0 DXMaxC= 9.37D-02 DCOld= 1.00D+10 DXMaxT= 3.00D-01 DXLimC= 3.00D+00 Rises=F
 Variable       Old X    -DE/DX   Delta X   Delta X   Delta X     New X
                                 (Linear)    (Quad)   (Total)
    R1        2.02201   0.01756   0.00000   0.04577   0.04577   2.06777
    R2        2.02201   0.01756   0.00000   0.04576   0.04576   2.06777
    R3        2.02201   0.01714   0.00000   0.04467   0.04467   2.06668
    R4        2.91018  -0.01362   0.00000  -0.04593  -0.04593   2.86424
    R5        2.02201   0.02337   0.00000   0.06092   0.06092   2.08293
    R6        2.02201   0.02337   0.00000   0.06092   0.06092   2.08293
    R7        2.91018  -0.00636   0.00000  -0.02146  -0.02146   2.88872
    R8        2.02201   0.02305   0.00000   0.06010   0.06010   2.08210
    R9        2.02201   0.02264   0.00000   0.05901   0.05901   2.08101
   R10        2.02201   0.02305   0.00000   0.06009   0.06009   2.08210
    A1        1.91063  -0.00132   0.00000  -0.00137  -0.00160   1.90903
    A2        1.91063  -0.00128   0.00000  -0.01062  -0.01058   1.90005
    A3        1.91063   0.00221   0.00000   0.01447   0.01436   1.92500
    A4        1.91063  -0.00128   0.00000  -0.01064  -0.01060   1.90003
    A5        1.91063   0.00222   0.00000   0.01454   0.01444   1.92508
    A6        1.91063  -0.00055   0.00000  -0.00638  -0.00635   1.90429
    A7        1.91063  -0.00303   0.00000  -0.00952  -0.00969   1.90094
    A8        1.91063  -0.00303   0.00000  -0.00960  -0.00977   1.90086
    A9        1.91063   0.01100   0.00000   0.05413   0.05398   1.96462
   A10        1.91063   0.00113   0.00000  -0.01589  -0.01616   1.89448
   A11        1.91063  -0.00303   0.00000  -0.00952  -0.00969   1.90094
   A12        1.91063  -0.00304   0.00000  -0.00961  -0.00978   1.90086
   A13        1.91063   0.00299   0.00000   0.01903   0.01886   1.92949
   A14        1.91063   0.00020   0.00000  -0.00201  -0.00198   1.90865
   A15        1.91063   0.00295   0.00000   0.01881   0.01864   1.92928
   A16        1.91063  -0.00204   0.00000  -0.01505  -0.01503   1.89561
   A17        1.91063  -0.00207   0.00000  -0.00576  -0.00611   1.90453
   A18        1.91063  -0.00203   0.00000  -0.01502  -0.01499   1.89564
    D1        3.14157   0.00172   0.00000   0.02350   0.02355  -3.11806
    D2       -1.04722  -0.00061   0.00000  -0.00767  -0.00758  -1.05479
    D3        1.04718   0.00055   0.00000   0.00784   0.00791   1.05509
    D4        1.04718   0.00061   0.00000   0.00741   0.00732   1.05450
    D5        3.14157  -0.00172   0.00000  -0.02376  -0.02381   3.11777
    D6       -1.04722  -0.00056   0.00000  -0.00825  -0.00832  -1.05554
    D7       -1.04722   0.00116   0.00000   0.01544   0.01543  -1.03179
    D8        1.04718  -0.00117   0.00000  -0.01572  -0.01571   1.03147
    D9        3.14157  -0.00001   0.00000  -0.00022  -0.00022   3.14135
   D10        1.04528   0.00056   0.00000   0.00854   0.00863   1.05391
   D11        3.13967   0.00001   0.00000   0.00053   0.00053   3.14020
   D12       -1.04912  -0.00054   0.00000  -0.00757  -0.00767  -1.05679
   D13       -1.04912  -0.00061   0.00000  -0.00713  -0.00701  -1.05613
   D14        1.04528  -0.00116   0.00000  -0.01514  -0.01512   1.03016
   D15        3.13967  -0.00171   0.00000  -0.02324  -0.02332   3.11636
   D16        3.13967   0.00172   0.00000   0.02404   0.02412  -3.11939
   D17       -1.04912   0.00117   0.00000   0.01603   0.01601  -1.03310
   D18        1.04528   0.00062   0.00000   0.00793   0.00782   1.05309
         Item               Value     Threshold  Converged?
 Maximum Force            0.023372     0.000450     NO 
 RMS     Force            0.009358     0.000300     NO 
 Maximum Displacement     0.093747     0.001800     NO 
 RMS     Displacement     0.038491     0.001200     NO 
 Predicted change in Energy=-5.873673D-03
 Lowest energy point so far.  Saving SCF results.
 GradGradGradGradGradGradGradGradGradGradGradGradGradGradGradGradGradGrad

 Leave Link  103 at Tue Feb  7 16:34:01 2017, MaxMem=  1048576000 cpu:         0.1
 (Enter /mnt/data/applications/G09/g09/l202.exe)
                          Input orientation:                          
 ---------------------------------------------------------------------
 Center     Atomic      Atomic             Coordinates (Angstroms)
 Number     Number       Type             X           Y           Z
 ---------------------------------------------------------------------
      1          6    10061003        0.434071   -2.954937    0.001017
      2          1    10011000        0.771030   -3.995842   -0.016014
      3          1    10011000        0.770790   -2.449364   -0.909107
      4          1    10011000       -0.659008   -2.937558    0.031381
      5          6    10061003        0.975783   -2.247003    1.226863
      6          1    10011000        0.603525   -1.209552    1.234044
      7          1    10011000        0.603435   -2.759320    2.128982
      8          6    10061003        2.503813   -2.225477    1.264444
      9          1    10011000        2.904983   -1.698242    0.384074
     10          1    10011000        2.839250   -1.699663    2.172023
     11          1    10011000        2.904509   -3.251643    1.284181
 ---------------------------------------------------------------------
                    Distance matrix (angstroms):
                    1          2          3          4          5
     1  C    0.000000
     2  H    1.094218   0.000000
     3  H    1.094216   1.785836   0.000000
     4  H    1.093639   1.779669   1.779656   0.000000
     5  C    1.515692   2.155251   2.155306   2.139763   0.000000
     6  H    2.143698   3.058450   2.481574   2.454871   1.102239
     7  H    2.143638   2.481548   3.058442   2.454681   1.102239
     8  C    2.532231   2.788602   2.788875   3.468565   1.528644
     9  H    2.798468   3.161138   2.606010   3.789767   2.175603
    10  H    3.474747   3.786486   3.786020   4.283987   2.159958
    11  H    2.799572   2.606927   3.163372   3.790357   2.175447
                    6          7          8          9         10
     6  H    0.000000
     7  H    1.789608   0.000000
     8  C    2.155022   2.154959   0.000000
     9  H    2.501595   3.076965   1.101801   0.000000
    10  H    2.473556   2.474590   1.101226   1.789157   0.000000
    11  H    3.076878   2.500202   1.101800   1.795341   1.789180
                   11
    11  H    0.000000
 Symmetry turned off by external request.
 Stoichiometry    C3H8
 Framework group  C1[X(C3H8)]
 Deg. of freedom    27
 Full point group                 C1      NOp   1
 Rotational constants (GHZ):     29.4484441      8.5060304      7.5559063
 Leave Link  202 at Tue Feb  7 16:34:01 2017, MaxMem=  1048576000 cpu:         0.0
 (Enter /mnt/data/applications/G09/g09/l120.exe)
 ONIOM: saving gridpoint 17
 ONIOM: restoring gridpoint  3
 ONIOM: restoring gridpoint  3 on chk file.
 ONIOM: generating point  3 -- low level on real system.
 Leave Link  120 at Tue Feb  7 16:34:01 2017, MaxMem=  1048576000 cpu:         0.0
 (Enter /mnt/data/applications/G09/g09/l301.exe)
 Standard basis: Dummy (5D, 7F)
    11 basis functions,    11 primitive gaussians,    11 cartesian basis functions
     7 alpha electrons        7 beta electrons
       nuclear repulsion energy        24.2508156935 Hartrees.
 IExCor=    0 DFT=F Ex=HF Corr=None ExCW=0 ScaHFX=  1.000000
 ScaDFX=  1.000000  1.000000  1.000000  1.000000 ScalE2=  1.000000  1.000000
 IRadAn=      0 IRanWt=     -1 IRanGd=            0 ICorTp=0 IEmpDi=  4
 NAtoms=   11 NActive=   11 NUniq=   11 SFac= 1.00D+00 NAtFMM=   60 NAOKFM=F Big=F
 Integral buffers will be    131072 words long.
 Raffenetti 1 integral format.
 Two-electron integral symmetry is turned off.
 Leave Link  301 at Tue Feb  7 16:34:02 2017, MaxMem=  1048576000 cpu:         0.4
 (Enter /mnt/data/applications/G09/g09/l402.exe)
 UFF calculation of energy and first derivatives.
 Energy per function type:
 Direct Coulomb + vdW (small)                           0.001086471
 Direct Coulomb (large)                                 0.000000000
 Direct vdW (large)                                   548.854871815
 Non-direct Coulomb + vdW (small)                       0.000000000
 Non-direct Coulomb (large)                             0.000000000
 Non-direct vdW (large)                              -548.854871815
 Harmonic stretch III                                   0.000645799
 UFF 3-term bend                                        0.000690030
 UFF torsion w/ sp3 V                                   0.000003141
 Energy per function class:
        Coulomb               0.000000000
    Vanderwaals               0.001086471
     Stretching               0.000645799
        Bending               0.000690030
        Torsion               0.000003141
 Energy=    2.425441416E-03 NIter=   0.
 Dipole moment=       0.000000       0.000000       0.000000
 Leave Link  402 at Tue Feb  7 16:34:02 2017, MaxMem=  1048576000 cpu:         0.3
 (Enter /mnt/data/applications/G09/g09/l716.exe)
 Dipole        = 0.00000000D+00 0.00000000D+00 0.00000000D+00
 Cartesian Forces:  Max     0.009531127 RMS     0.003983281
 Leave Link  716 at Tue Feb  7 16:34:02 2017, MaxMem=  1048576000 cpu:         0.3
 (Enter /mnt/data/applications/G09/g09/l120.exe)
 ONIOM: saving gridpoint  3
 ONIOM: restoring gridpoint  2
 ONIOM: restoring gridpoint  2 on chk file.
 ONIOM: generating point  2 -- high level on model system.
 Leave Link  120 at Tue Feb  7 16:34:02 2017, MaxMem=  1048576000 cpu:         0.0
 (Enter /mnt/data/applications/G09/g09/l301.exe)
 Standard basis: 6-31G(d) (6D, 7F)
 Ernie: Thresh=  0.10000D-02 Tol=  0.10000D-05 Strict=F.
    23 basis functions,    44 primitive gaussians,    23 cartesian basis functions
     5 alpha electrons        5 beta electrons
       nuclear repulsion energy        13.3764018420 Hartrees.
 IExCor=  402 DFT=T Ex+Corr=B3LYP ExCW=0 ScaHFX=  0.200000
 ScaDFX=  0.800000  0.720000  1.000000  0.810000 ScalE2=  1.000000  1.000000
 IRadAn=      0 IRanWt=     -1 IRanGd=            0 ICorTp=0 IEmpDi=  4
 NAtoms=   11 NActive=    5 NUniq=    5 SFac= 1.00D+00 NAtFMM=   60 NAOKFM=F Big=F
 Integral buffers will be    131072 words long.
 Raffenetti 2 integral format.
 Two-electron integral symmetry is turned off.
 Leave Link  301 at Tue Feb  7 16:34:02 2017, MaxMem=  1048576000 cpu:         0.5
 (Enter /mnt/data/applications/G09/g09/l302.exe)
 NPDir=0 NMtPBC=     1 NCelOv=     1 NCel=       1 NClECP=     1 NCelD=      1
         NCelK=      1 NCelE2=     1 NClLst=     1 CellRange=     0.0.
 One-electron integrals computed using PRISM.
 NBasis=    23 RedAO= T EigKep=  1.80D-02  NBF=    23
 NBsUse=    23 1.00D-06 EigRej= -1.00D+00 NBFU=    23
 Precomputing XC quadrature grid using
 IXCGrd= 4 IRadAn=           0 IRanWt=          -1 IRanGd=           0 AccXCQ= 0.00D+00.
 Generated NRdTot=       0 NPtTot=           0 NUsed=           0 NTot=          32
 NSgBfM=    23    23    23    23    23 MxSgAt=     5 MxSgA2=     5.
 Leave Link  302 at Tue Feb  7 16:34:02 2017, MaxMem=  1048576000 cpu:         1.7
 (Enter /mnt/data/applications/G09/g09/l303.exe)
 DipDrv:  MaxL=1.
 Leave Link  303 at Tue Feb  7 16:34:02 2017, MaxMem=  1048576000 cpu:         0.3
 (Enter /mnt/data/applications/G09/g09/l401.exe)
 Initial guess from the checkpoint file:  "A_3_UFF.chk"
 B after Tr=     0.067883    0.009789    0.016814
         Rot=    0.999847    0.000050   -0.015166    0.008679 Ang=   2.00 deg.
 Guess basis will be translated and rotated to current coordinates.
 JPrj=2 DoOrth=T DoCkMO=T.
 Generating alternative initial guess.
 ExpMin= 1.61D-01 ExpMax= 3.05D+03 ExpMxC= 4.57D+02 IAcc=1 IRadAn=         1 AccDes= 0.00D+00
 Harris functional with IExCor=  402 and IRadAn=       1 diagonalized for initial guess.
 HarFok:  IExCor=  402 AccDes= 0.00D+00 IRadAn=         1 IDoV= 1 UseB2=F ITyADJ=14
 ICtDFT=  3500011 ScaDFX=  1.000000  1.000000  1.000000  1.000000
 FoFCou: FMM=F IPFlag=           0 FMFlag=      100000 FMFlg1=           0
         NFxFlg=           0 DoJE=T BraDBF=F KetDBF=T FulRan=T
         wScrn=  0.000000 ICntrl=     500 IOpCl=  0 I1Cent=   200000004 NGrid=           0
         NMat0=    1 NMatS0=      1 NMatT0=    0 NMatD0=    1 NMtDS0=    0 NMtDT0=    0
 Symmetry not used in FoFCou.
 Harris En= -40.5605591319385    
 Leave Link  401 at Tue Feb  7 16:34:03 2017, MaxMem=  1048576000 cpu:         2.3
 (Enter /mnt/data/applications/G09/g09/l502.exe)
 Closed shell SCF:
 Using DIIS extrapolation, IDIIS=  1040.
 Two-electron integral symmetry not used.
 Keep R1 ints in memory in canonical form, NReq=911977.
 IVT=       13957 IEndB=       13957 NGot=  1048576000 MDV=  1048523818
 LenX=  1048523818 LenY=  1048522848
 Requested convergence on RMS density matrix=1.00D-08 within 100 cycles.
 Requested convergence on MAX density matrix=1.00D-06.
 Requested convergence on             energy=1.00D-06.
 No special actions if energy rises.
 FoFCou: FMM=F IPFlag=           0 FMFlag=           0 FMFlg1=           0
         NFxFlg=           0 DoJE=F BraDBF=F KetDBF=F FulRan=T
         wScrn=  0.000000 ICntrl=     600 IOpCl=  0 I1Cent=           0 NGrid=           0
         NMat0=    1 NMatS0=    276 NMatT0=    0 NMatD0=    1 NMtDS0=    0 NMtDT0=    0
 Symmetry not used in FoFCou.
 Integral accuracy reduced to 1.0D-05 until final iterations.

 Cycle   1  Pass 0  IDiag  1:
 E= -40.5179860920442    
 DIIS: error= 3.11D-03 at cycle   1 NSaved=   1.
 NSaved= 1 IEnMin= 1 EnMin= -40.5179860920442     IErMin= 1 ErrMin= 3.11D-03
 ErrMax= 3.11D-03  0.00D+00 EMaxC= 1.00D-01 BMatC= 2.05D-04 BMatP= 2.05D-04
 IDIUse=3 WtCom= 9.69D-01 WtEn= 3.11D-02
 Coeff-Com:  0.100D+01
 Coeff-En:   0.100D+01
 Coeff:      0.100D+01
 Gap=     2.203 Goal=   None    Shift=    0.000
 GapD=    2.203 DampG=2.000 DampE=1.000 DampFc=2.0000 IDamp=-1.
 RMSDP=9.31D-04 MaxDP=6.34D-03              OVMax= 8.22D-03

 Cycle   2  Pass 0  IDiag  1:
 E= -40.5182230898457     Delta-E=       -0.000236997801 Rises=F Damp=F
 DIIS: error= 2.29D-03 at cycle   2 NSaved=   2.
 NSaved= 2 IEnMin= 2 EnMin= -40.5182230898457     IErMin= 2 ErrMin= 2.29D-03
 ErrMax= 2.29D-03  0.00D+00 EMaxC= 1.00D-01 BMatC= 8.99D-05 BMatP= 2.05D-04
 IDIUse=3 WtCom= 9.77D-01 WtEn= 2.29D-02
 Coeff-Com:  0.370D+00 0.630D+00
 Coeff-En:   0.000D+00 0.100D+01
 Coeff:      0.362D+00 0.638D+00
 Gap=     0.505 Goal=   None    Shift=    0.000
 RMSDP=4.39D-04 MaxDP=3.39D-03 DE=-2.37D-04 OVMax= 4.15D-03

 Cycle   3  Pass 0  IDiag  1:
 E= -40.5183017083513     Delta-E=       -0.000078618506 Rises=F Damp=F
 DIIS: error= 8.37D-04 at cycle   3 NSaved=   3.
 NSaved= 3 IEnMin= 3 EnMin= -40.5183017083513     IErMin= 3 ErrMin= 8.37D-04
 ErrMax= 8.37D-04  0.00D+00 EMaxC= 1.00D-01 BMatC= 1.30D-05 BMatP= 8.99D-05
 IDIUse=3 WtCom= 9.92D-01 WtEn= 8.37D-03
 Coeff-Com:  0.108D-01 0.274D+00 0.715D+00
 Coeff-En:   0.000D+00 0.667D-01 0.933D+00
 Coeff:      0.108D-01 0.273D+00 0.717D+00
 Gap=     0.505 Goal=   None    Shift=    0.000
 RMSDP=1.21D-04 MaxDP=1.01D-03 DE=-7.86D-05 OVMax= 1.18D-03

 Cycle   4  Pass 0  IDiag  1:
 E= -40.5183146214001     Delta-E=       -0.000012913049 Rises=F Damp=F
 DIIS: error= 4.33D-05 at cycle   4 NSaved=   4.
 NSaved= 4 IEnMin= 4 EnMin= -40.5183146214001     IErMin= 4 ErrMin= 4.33D-05
 ErrMax= 4.33D-05  0.00D+00 EMaxC= 1.00D-01 BMatC= 6.23D-08 BMatP= 1.30D-05
 IDIUse=1 WtCom= 1.00D+00 WtEn= 0.00D+00
 Coeff-Com: -0.511D-02 0.410D-01 0.143D+00 0.821D+00
 Coeff:     -0.511D-02 0.410D-01 0.143D+00 0.821D+00
 Gap=     0.505 Goal=   None    Shift=    0.000
 RMSDP=1.31D-05 MaxDP=4.51D-05 DE=-1.29D-05 OVMax= 1.10D-04

 Cycle   5  Pass 0  IDiag  1:
 E= -40.5183146892799     Delta-E=       -0.000000067880 Rises=F Damp=F
 DIIS: error= 5.39D-06 at cycle   5 NSaved=   5.
 NSaved= 5 IEnMin= 5 EnMin= -40.5183146892799     IErMin= 5 ErrMin= 5.39D-06
 ErrMax= 5.39D-06  0.00D+00 EMaxC= 1.00D-01 BMatC= 9.19D-10 BMatP= 6.23D-08
 IDIUse=1 WtCom= 1.00D+00 WtEn= 0.00D+00
 Coeff-Com: -0.529D-03-0.133D-02-0.932D-03 0.111D+00 0.891D+00
 Coeff:     -0.529D-03-0.133D-02-0.932D-03 0.111D+00 0.891D+00
 Gap=     0.505 Goal=   None    Shift=    0.000
 RMSDP=1.42D-06 MaxDP=7.54D-06 DE=-6.79D-08 OVMax= 1.40D-05

 Initial convergence to 1.0D-05 achieved.  Increase integral accuracy.
 Cycle   6  Pass 1  IDiag  1:
 E= -40.5183256757691     Delta-E=       -0.000010986489 Rises=F Damp=F
 DIIS: error= 1.54D-06 at cycle   1 NSaved=   1.
 NSaved= 1 IEnMin= 1 EnMin= -40.5183256757691     IErMin= 1 ErrMin= 1.54D-06
 ErrMax= 1.54D-06  0.00D+00 EMaxC= 1.00D-01 BMatC= 9.07D-11 BMatP= 9.07D-11
 IDIUse=1 WtCom= 1.00D+00 WtEn= 0.00D+00
 Coeff-Com:  0.100D+01
 Coeff:      0.100D+01
 Gap=     0.505 Goal=   None    Shift=    0.000
 RMSDP=1.42D-06 MaxDP=7.54D-06 DE=-1.10D-05 OVMax= 7.19D-06

 Cycle   7  Pass 1  IDiag  1:
 E= -40.5183256759014     Delta-E=       -0.000000000132 Rises=F Damp=F
 DIIS: error= 9.38D-07 at cycle   2 NSaved=   2.
 NSaved= 2 IEnMin= 2 EnMin= -40.5183256759014     IErMin= 2 ErrMin= 9.38D-07
 ErrMax= 9.38D-07  0.00D+00 EMaxC= 1.00D-01 BMatC= 1.90D-11 BMatP= 9.07D-11
 IDIUse=1 WtCom= 1.00D+00 WtEn= 0.00D+00
 Coeff-Com:  0.221D+00 0.779D+00
 Coeff:      0.221D+00 0.779D+00
 Gap=     0.505 Goal=   None    Shift=    0.000
 RMSDP=2.19D-07 MaxDP=1.78D-06 DE=-1.32D-10 OVMax= 2.16D-06

 Cycle   8  Pass 1  IDiag  1:
 E= -40.5183256759124     Delta-E=       -0.000000000011 Rises=F Damp=F
 DIIS: error= 6.43D-07 at cycle   3 NSaved=   3.
 NSaved= 3 IEnMin= 3 EnMin= -40.5183256759124     IErMin= 3 ErrMin= 6.43D-07
 ErrMax= 6.43D-07  0.00D+00 EMaxC= 1.00D-01 BMatC= 7.42D-12 BMatP= 1.90D-11
 IDIUse=1 WtCom= 1.00D+00 WtEn= 0.00D+00
 Coeff-Com: -0.159D-01 0.382D+00 0.634D+00
 Coeff:     -0.159D-01 0.382D+00 0.634D+00
 Gap=     0.505 Goal=   None    Shift=    0.000
 RMSDP=1.05D-07 MaxDP=7.43D-07 DE=-1.09D-11 OVMax= 9.02D-07

 Cycle   9  Pass 1  IDiag  1:
 E= -40.5183256759199     Delta-E=       -0.000000000008 Rises=F Damp=F
 DIIS: error= 4.94D-08 at cycle   4 NSaved=   4.
 NSaved= 4 IEnMin= 4 EnMin= -40.5183256759199     IErMin= 4 ErrMin= 4.94D-08
 ErrMax= 4.94D-08  0.00D+00 EMaxC= 1.00D-01 BMatC= 6.78D-14 BMatP= 7.42D-12
 IDIUse=1 WtCom= 1.00D+00 WtEn= 0.00D+00
 Coeff-Com: -0.777D-02 0.875D-01 0.190D+00 0.730D+00
 Coeff:     -0.777D-02 0.875D-01 0.190D+00 0.730D+00
 Gap=     0.505 Goal=   None    Shift=    0.000
 RMSDP=1.12D-08 MaxDP=6.21D-08 DE=-7.52D-12 OVMax= 1.25D-07

 Cycle  10  Pass 1  IDiag  1:
 E= -40.5183256759200     Delta-E=        0.000000000000 Rises=F Damp=F
 DIIS: error= 3.05D-09 at cycle   5 NSaved=   5.
 NSaved= 5 IEnMin= 5 EnMin= -40.5183256759200     IErMin= 5 ErrMin= 3.05D-09
 ErrMax= 3.05D-09  0.00D+00 EMaxC= 1.00D-01 BMatC= 3.20D-16 BMatP= 6.78D-14
 IDIUse=1 WtCom= 1.00D+00 WtEn= 0.00D+00
 Coeff-Com: -0.731D-03 0.197D-02 0.120D-01 0.763D-01 0.910D+00
 Coeff:     -0.731D-03 0.197D-02 0.120D-01 0.763D-01 0.910D+00
 Gap=     0.505 Goal=   None    Shift=    0.000
 RMSDP=6.23D-10 MaxDP=2.92D-09 DE=-7.11D-14 OVMax= 5.76D-09

 SCF Done:  E(RB3LYP) =  -40.5183256759     A.U. after   10 cycles
            NFock= 10  Conv=0.62D-09     -V/T= 2.0114
 KE= 4.006318150233D+01 PE=-1.197867673319D+02 EE= 2.582885831173D+01
 Leave Link  502 at Tue Feb  7 16:34:03 2017, MaxMem=  1048576000 cpu:         3.1
 (Enter /mnt/data/applications/G09/g09/l701.exe)
 Compute integral first derivatives.
 ... and contract with generalized density number  0.
 Leave Link  701 at Tue Feb  7 16:34:03 2017, MaxMem=  1048576000 cpu:         1.7
 (Enter /mnt/data/applications/G09/g09/l702.exe)
 L702 exits ... SP integral derivatives will be done elsewhere.
 Leave Link  702 at Tue Feb  7 16:34:04 2017, MaxMem=  1048576000 cpu:         0.3
 (Enter /mnt/data/applications/G09/g09/l703.exe)
 Compute integral first derivatives, UseDBF=F ICtDFT=           0.
 Integral derivatives from FoFJK, PRISM(SPDF).
 Calling FoFJK, ICntrl=      2127 FMM=F ISym2X=0 I1Cent= 0 IOpClX= 0 NMat=1 NMatS=1 NMatT=0.
 FoFJK:  IHMeth= 1 ICntrl=    2127 DoSepK=F KAlg= 0 I1Cent=   0 FoldK=F
 IRaf=         0 NMat=   1 IRICut=       1 DoRegI=T DoRafI=F ISym2E= 0.
 FoFCou: FMM=F IPFlag=           0 FMFlag=      100000 FMFlg1=         800
         NFxFlg=           0 DoJE=F BraDBF=F KetDBF=F FulRan=T
         wScrn=  0.000000 ICntrl=    2127 IOpCl=  0 I1Cent=           0 NGrid=           0
         NMat0=    1 NMatS0=      1 NMatT0=    0 NMatD0=    1 NMtDS0=    0 NMtDT0=    0
 Symmetry not used in FoFCou.
 Leave Link  703 at Tue Feb  7 16:34:04 2017, MaxMem=  1048576000 cpu:         2.3
 (Enter /mnt/data/applications/G09/g09/l716.exe)
 Dipole        =-4.49600344D-03-1.30279366D-03-2.24161246D-03
 Cartesian Forces:  Max     0.002797114 RMS     0.000746076
 Leave Link  716 at Tue Feb  7 16:34:04 2017, MaxMem=  1048576000 cpu:         0.3
 (Enter /mnt/data/applications/G09/g09/l120.exe)
 SvSCFP is copying densities from files   528 and   530 to   603.
 ONIOM: saving gridpoint  2
 ONIOM: restoring gridpoint  1
 ONIOM: restoring gridpoint  1 on chk file.
 ONIOM: generating point  1 -- low level on model system.
 Leave Link  120 at Tue Feb  7 16:34:04 2017, MaxMem=  1048576000 cpu:         0.3
 (Enter /mnt/data/applications/G09/g09/l301.exe)
 Standard basis: Dummy (5D, 7F)
     5 basis functions,     5 primitive gaussians,     5 cartesian basis functions
     3 alpha electrons        3 beta electrons
       nuclear repulsion energy         5.6428169295 Hartrees.
 IExCor=    0 DFT=F Ex=HF Corr=None ExCW=0 ScaHFX=  1.000000
 ScaDFX=  1.000000  1.000000  1.000000  1.000000 ScalE2=  1.000000  1.000000
 IRadAn=      0 IRanWt=     -1 IRanGd=            0 ICorTp=0 IEmpDi=  4
 NAtoms=   11 NActive=    5 NUniq=    5 SFac= 1.00D+00 NAtFMM=   60 NAOKFM=F Big=F
 Integral buffers will be    131072 words long.
 Raffenetti 1 integral format.
 Two-electron integral symmetry is turned off.
 Leave Link  301 at Tue Feb  7 16:34:04 2017, MaxMem=  1048576000 cpu:         0.4
 (Enter /mnt/data/applications/G09/g09/l402.exe)
 UFF calculation of energy and first derivatives.
 Energy per function type:
 Direct Coulomb + vdW (small)                           0.000000000
 Direct Coulomb (large)                                 0.000000000
 Direct vdW (large)                                   274.812693207
 Non-direct Coulomb + vdW (small)                       0.000000000
 Non-direct Coulomb (large)                             0.000000000
 Non-direct vdW (large)                              -274.812693207
 Harmonic stretch III                                   0.000453021
 UFF 3-term bend                                        0.000040964
 Energy per function class:
        Coulomb               0.000000000
    Vanderwaals               0.000000000
     Stretching               0.000453021
        Bending               0.000040964
 Energy=    4.939850363E-04 NIter=   0.
 Dipole moment=       0.000000       0.000000       0.000000
 Leave Link  402 at Tue Feb  7 16:34:04 2017, MaxMem=  1048576000 cpu:         0.3
 (Enter /mnt/data/applications/G09/g09/l716.exe)
 Dipole        = 0.00000000D+00 0.00000000D+00 0.00000000D+00
 Cartesian Forces:  Max     0.008788312 RMS     0.002892346
 Leave Link  716 at Tue Feb  7 16:34:05 2017, MaxMem=  1048576000 cpu:         0.3
 (Enter /mnt/data/applications/G09/g09/l120.exe)
 ONIOM: saving gridpoint  1
 ONIOM: restoring gridpoint  3
 ONIOM: calculating energy.
 ONIOM: gridpoint  1 method:  low   system:  model energy:     0.000493985036
 ONIOM: gridpoint  2 method:  high  system:  model energy:   -40.518325675920
 ONIOM: gridpoint  3 method:  low   system:  real  energy:     0.002425441416
 ONIOM: extrapolated energy =     -40.516394219540
 ONIOM: calculating first derivatives.
 ONIOM: calculating electric field derivatives.
 ONIOM: Integrating ONIOM file  4 number   619
 ONIOM: Dipole        =-4.49600344D-03-1.30279366D-03-2.24161246D-03
 ONIOM: Dipole moment (Debye):
    X=    -0.0114    Y=    -0.0033    Z=    -0.0057  Tot=     0.0132
 ONIOM: Integrating ONIOM file  5 number   695
 Leave Link  120 at Tue Feb  7 16:34:05 2017, MaxMem=  1048576000 cpu:         0.0
 (Enter /mnt/data/applications/G09/g09/l716.exe)
 Dipole        =-4.49600344D-03-1.30279366D-03-2.24161246D-03
 -------------------------------------------------------------------
 Center     Atomic                   Forces (Hartrees/Bohr)
 Number     Number              X              Y              Z
 -------------------------------------------------------------------
      1        6           0.003763314    0.000675065    0.001175077
      2        1           0.000085274   -0.000166832   -0.000028595
      3        1           0.000086420    0.000063719   -0.000150951
      4        1          -0.000941959   -0.000554375   -0.000952323
      5        6           0.003015038   -0.001693266   -0.002934139
      6        1          -0.002031168    0.004874607    0.000737330
      7        1          -0.002035111   -0.001782735    0.004598903
      8        6          -0.006350067   -0.001405728   -0.002423665
      9        1           0.001246300    0.002509281   -0.004250663
     10        1           0.001903354    0.002411542    0.004176138
     11        1           0.001258604   -0.004931277    0.000052888
 -------------------------------------------------------------------
 Cartesian Forces:  Max     0.006350067 RMS     0.002596692
 Leave Link  716 at Tue Feb  7 16:34:05 2017, MaxMem=  1048576000 cpu:         0.3
 (Enter /mnt/data/applications/G09/g09/l103.exe)

 GradGradGradGradGradGradGradGradGradGradGradGradGradGradGradGradGradGrad
 Berny optimization.
 Using GEDIIS/GDIIS optimizer.
 FormGI is forming the generalized inverse of G from B-inverse, IUseBI=4.
 Internal  Forces:  Max     0.007256211 RMS     0.002202235
 Search for a local minimum.
 Step number   2 out of a maximum of   56
 All quantities printed in internal units (Hartrees-Bohrs-Radians)
 RMS Force = .22022D-02 SwitMx=.10000D-02 MixMth= 1
 Mixed Optimization -- RFO/linear search
 Update second derivatives using D2CorX and points    1    2
 DE= -6.18D-03 DEPred=-5.87D-03 R= 1.05D+00
 TightC=F SS=  1.41D+00  RLast= 1.90D-01 DXNew= 5.0454D-01 5.6935D-01
 Trust test= 1.05D+00 RLast= 1.90D-01 DXMaxT set to 5.05D-01
 ITU=  1  0
 Use linear search instead of GDIIS.
     Eigenvalues ---    0.00237   0.00237   0.03516   0.04870   0.05526
     Eigenvalues ---    0.05594   0.05673   0.05719   0.08182   0.12107
     Eigenvalues ---    0.15891   0.16000   0.16000   0.16000   0.16000
     Eigenvalues ---    0.16191   0.22597   0.28206   0.28809   0.31666
     Eigenvalues ---    0.37230   0.37230   0.37230   0.37230   0.37230
     Eigenvalues ---    0.37230   0.38789
 RFO step:  Lambda=-8.29840232D-04 EMin= 2.36824117D-03
 Quartic linear search produced a step of  0.11257.
 Iteration  1 RMS(Cart)=  0.02527386 RMS(Int)=  0.00022288
 Iteration  2 RMS(Cart)=  0.00037144 RMS(Int)=  0.00003287
 Iteration  3 RMS(Cart)=  0.00000005 RMS(Int)=  0.00003287
 ITry= 1 IFail=0 DXMaxC= 5.51D-02 DCOld= 1.00D+10 DXMaxT= 5.05D-01 DXLimC= 3.00D+00 Rises=F
 Variable       Old X    -DE/DX   Delta X   Delta X   Delta X     New X
                                 (Linear)    (Quad)   (Total)
    R1        2.06777   0.00019   0.00515  -0.00115   0.00401   2.07178
    R2        2.06777   0.00018   0.00515  -0.00116   0.00399   2.07176
    R3        2.06668   0.00091   0.00503   0.00104   0.00607   2.07275
    R4        2.86424  -0.00111  -0.00517  -0.00261  -0.00778   2.85646
    R5        2.08293   0.00528   0.00686   0.01348   0.02034   2.10327
    R6        2.08293   0.00528   0.00686   0.01348   0.02034   2.10327
    R7        2.88872  -0.00202  -0.00242  -0.00706  -0.00947   2.87924
    R8        2.08210   0.00505   0.00676   0.01283   0.01959   2.10170
    R9        2.08101   0.00517   0.00664   0.01323   0.01988   2.10089
   R10        2.08210   0.00505   0.00676   0.01283   0.01960   2.10170
    A1        1.90903   0.00000  -0.00018  -0.00295  -0.00317   1.90586
    A2        1.90005  -0.00059  -0.00119  -0.00211  -0.00331   1.89674
    A3        1.92500  -0.00028   0.00162  -0.00329  -0.00170   1.92330
    A4        1.90003  -0.00059  -0.00119  -0.00208  -0.00328   1.89675
    A5        1.92508  -0.00029   0.00163  -0.00340  -0.00180   1.92328
    A6        1.90429   0.00174  -0.00071   0.01389   0.01317   1.91746
    A7        1.90094   0.00229  -0.00109   0.01152   0.01039   1.91133
    A8        1.90086   0.00230  -0.00110   0.01161   0.01047   1.91133
    A9        1.96462  -0.00726   0.00608  -0.04042  -0.03432   1.93030
   A10        1.89448  -0.00150  -0.00182  -0.00077  -0.00274   1.89173
   A11        1.90094   0.00215  -0.00109   0.00952   0.00843   1.90937
   A12        1.90086   0.00215  -0.00110   0.00959   0.00849   1.90934
   A13        1.92949  -0.00090   0.00212  -0.00765  -0.00556   1.92393
   A14        1.90865   0.00085  -0.00022   0.00738   0.00717   1.91582
   A15        1.92928  -0.00087   0.00210  -0.00745  -0.00538   1.92389
   A16        1.89561   0.00014  -0.00169   0.00288   0.00120   1.89681
   A17        1.90453   0.00068  -0.00069   0.00234   0.00159   1.90611
   A18        1.89564   0.00013  -0.00169   0.00285   0.00118   1.89682
    D1       -3.11806  -0.00060   0.00265  -0.01053  -0.00791  -3.12597
    D2       -1.05479   0.00022  -0.00085   0.00179   0.00098  -1.05381
    D3        1.05509  -0.00018   0.00089  -0.00429  -0.00339   1.05169
    D4        1.05450  -0.00023   0.00082  -0.00247  -0.00169   1.05281
    D5        3.11777   0.00059  -0.00268   0.00985   0.00720   3.12496
    D6       -1.05554   0.00019  -0.00094   0.00377   0.00282  -1.05272
    D7       -1.03179  -0.00041   0.00174  -0.00649  -0.00479  -1.03658
    D8        1.03147   0.00041  -0.00177   0.00584   0.00411   1.03558
    D9        3.14135   0.00000  -0.00002  -0.00025  -0.00027   3.14108
   D10        1.05391  -0.00015   0.00097  -0.00233  -0.00134   1.05258
   D11        3.14020   0.00000   0.00006   0.00115   0.00121   3.14141
   D12       -1.05679   0.00016  -0.00086   0.00472   0.00384  -1.05295
   D13       -1.05613   0.00017  -0.00079   0.00276   0.00201  -1.05412
   D14        1.03016   0.00033  -0.00170   0.00624   0.00456   1.03471
   D15        3.11636   0.00049  -0.00262   0.00981   0.00718   3.12353
   D16       -3.11939  -0.00048   0.00272  -0.00726  -0.00453  -3.12392
   D17       -1.03310  -0.00032   0.00180  -0.00377  -0.00199  -1.03509
   D18        1.05309  -0.00016   0.00088  -0.00021   0.00064   1.05373
         Item               Value     Threshold  Converged?
 Maximum Force            0.007256     0.000450     NO 
 RMS     Force            0.002202     0.000300     NO 
 Maximum Displacement     0.055147     0.001800     NO 
 RMS     Displacement     0.025530     0.001200     NO 
 Predicted change in Energy=-4.783171D-04
 Lowest energy point so far.  Saving SCF results.
 GradGradGradGradGradGradGradGradGradGradGradGradGradGradGradGradGradGrad

 Leave Link  103 at Tue Feb  7 16:34:05 2017, MaxMem=  1048576000 cpu:         0.1
 (Enter /mnt/data/applications/G09/g09/l202.exe)
                          Input orientation:                          
 ---------------------------------------------------------------------
 Center     Atomic      Atomic             Coordinates (Angstroms)
 Number     Number       Type             X           Y           Z
 ---------------------------------------------------------------------
      1          6    10061003        0.449862   -2.950264    0.009482
      2          1    10011000        0.800213   -3.989047   -0.002321
      3          1    10011000        0.799786   -2.441468   -0.896399
      4          1    10011000       -0.646989   -2.949540    0.011265
      5          6    10061003        0.965901   -2.239410    1.239623
      6          1    10011000        0.590517   -1.191661    1.248416
      7          1    10011000        0.590109   -2.754671    2.151796
      8          6    10061003        2.489437   -2.231259    1.254457
      9          1    10011000        2.880009   -1.702988    0.357069
     10          1    10011000        2.853807   -1.705571    2.163775
     11          1    10011000        2.879530   -3.272722    1.264726
 ---------------------------------------------------------------------
                    Distance matrix (angstroms):
                    1          2          3          4          5
     1  C    0.000000
     2  H    1.096338   0.000000
     3  H    1.096330   1.787282   0.000000
     4  H    1.096853   1.781896   1.781895   0.000000
     5  C    1.511575   2.152001   2.151979   2.148154   0.000000
     6  H    2.155789   3.071431   2.491194   2.480344   1.113001
     7  H    2.155791   2.491596   3.071409   2.479971   1.113001
     8  C    2.495356   2.742771   2.743227   3.449439   1.523630
     9  H    2.753567   3.111395   2.538477   3.756753   2.174962
    10  H    3.459652   3.758123   3.758353   4.293755   2.168693
    11  H    2.753708   2.538128   3.112360   3.756587   2.174934
                    6          7          8          9         10
     6  H    0.000000
     7  H    1.805297   0.000000
     8  C    2.164879   2.164862   0.000000
     9  H    2.509528   3.093659   1.112169   0.000000
    10  H    2.494888   2.495012   1.111743   1.806898   0.000000
    11  H    3.093649   2.509326   1.112170   1.813258   1.806907
                   11
    11  H    0.000000
 Symmetry turned off by external request.
 Stoichiometry    C3H8
 Framework group  C1[X(C3H8)]
 Deg. of freedom    27
 Full point group                 C1      NOp   1
 Rotational constants (GHZ):     28.6729392      8.7053720      7.6733334
 Leave Link  202 at Tue Feb  7 16:34:05 2017, MaxMem=  1048576000 cpu:         0.0
 (Enter /mnt/data/applications/G09/g09/l120.exe)
 ONIOM: saving gridpoint 17
 ONIOM: restoring gridpoint  3
 ONIOM: restoring gridpoint  3 on chk file.
 ONIOM: generating point  3 -- low level on real system.
 Leave Link  120 at Tue Feb  7 16:34:05 2017, MaxMem=  1048576000 cpu:         0.0
 (Enter /mnt/data/applications/G09/g09/l301.exe)
 Standard basis: Dummy (5D, 7F)
    11 basis functions,    11 primitive gaussians,    11 cartesian basis functions
     7 alpha electrons        7 beta electrons
       nuclear repulsion energy        24.2292444367 Hartrees.
 IExCor=    0 DFT=F Ex=HF Corr=None ExCW=0 ScaHFX=  1.000000
 ScaDFX=  1.000000  1.000000  1.000000  1.000000 ScalE2=  1.000000  1.000000
 IRadAn=      0 IRanWt=     -1 IRanGd=            0 ICorTp=0 IEmpDi=  4
 NAtoms=   11 NActive=   11 NUniq=   11 SFac= 1.00D+00 NAtFMM=   60 NAOKFM=F Big=F
 Integral buffers will be    131072 words long.
 Raffenetti 1 integral format.
 Two-electron integral symmetry is turned off.
 Leave Link  301 at Tue Feb  7 16:34:05 2017, MaxMem=  1048576000 cpu:         0.3
 (Enter /mnt/data/applications/G09/g09/l402.exe)
 UFF calculation of energy and first derivatives.
 Energy per function type:
 Direct Coulomb + vdW (small)                           0.001533470
 Direct Coulomb (large)                                 0.000000000
 Direct vdW (large)                                   509.693367580
 Non-direct Coulomb + vdW (small)                       0.000000000
 Non-direct Coulomb (large)                             0.000000000
 Non-direct vdW (large)                              -509.693367580
 Harmonic stretch III                                   0.000342872
 UFF 3-term bend                                        0.000206063
 UFF torsion w/ sp3 V                                   0.000001678
 Energy per function class:
        Coulomb               0.000000000
    Vanderwaals               0.001533470
     Stretching               0.000342872
        Bending               0.000206063
        Torsion               0.000001678
 Energy=    2.084083035E-03 NIter=   0.
 Dipole moment=       0.000000       0.000000       0.000000
 Leave Link  402 at Tue Feb  7 16:34:05 2017, MaxMem=  1048576000 cpu:         0.3
 (Enter /mnt/data/applications/G09/g09/l716.exe)
 Dipole        = 0.00000000D+00 0.00000000D+00 0.00000000D+00
 Cartesian Forces:  Max     0.008035228 RMS     0.002873941
 Leave Link  716 at Tue Feb  7 16:34:05 2017, MaxMem=  1048576000 cpu:         0.3
 (Enter /mnt/data/applications/G09/g09/l120.exe)
 ONIOM: saving gridpoint  3
 ONIOM: restoring gridpoint  2
 ONIOM: restoring gridpoint  2 on chk file.
 ONIOM: generating point  2 -- high level on model system.
 Leave Link  120 at Tue Feb  7 16:34:05 2017, MaxMem=  1048576000 cpu:         0.0
 (Enter /mnt/data/applications/G09/g09/l301.exe)
 Standard basis: 6-31G(d) (6D, 7F)
 Ernie: Thresh=  0.10000D-02 Tol=  0.10000D-05 Strict=F.
    23 basis functions,    44 primitive gaussians,    23 cartesian basis functions
     5 alpha electrons        5 beta electrons
       nuclear repulsion energy        13.3627711664 Hartrees.
 IExCor=  402 DFT=T Ex+Corr=B3LYP ExCW=0 ScaHFX=  0.200000
 ScaDFX=  0.800000  0.720000  1.000000  0.810000 ScalE2=  1.000000  1.000000
 IRadAn=      0 IRanWt=     -1 IRanGd=            0 ICorTp=0 IEmpDi=  4
 NAtoms=   11 NActive=    5 NUniq=    5 SFac= 1.00D+00 NAtFMM=   60 NAOKFM=F Big=F
 Integral buffers will be    131072 words long.
 Raffenetti 2 integral format.
 Two-electron integral symmetry is turned off.
 Leave Link  301 at Tue Feb  7 16:34:06 2017, MaxMem=  1048576000 cpu:         0.6
 (Enter /mnt/data/applications/G09/g09/l302.exe)
 NPDir=0 NMtPBC=     1 NCelOv=     1 NCel=       1 NClECP=     1 NCelD=      1
         NCelK=      1 NCelE2=     1 NClLst=     1 CellRange=     0.0.
 One-electron integrals computed using PRISM.
 NBasis=    23 RedAO= T EigKep=  1.81D-02  NBF=    23
 NBsUse=    23 1.00D-06 EigRej= -1.00D+00 NBFU=    23
 Precomputing XC quadrature grid using
 IXCGrd= 4 IRadAn=           0 IRanWt=          -1 IRanGd=           0 AccXCQ= 0.00D+00.
 Generated NRdTot=       0 NPtTot=           0 NUsed=           0 NTot=          32
 NSgBfM=    23    23    23    23    23 MxSgAt=     5 MxSgA2=     5.
 Leave Link  302 at Tue Feb  7 16:34:06 2017, MaxMem=  1048576000 cpu:         1.7
 (Enter /mnt/data/applications/G09/g09/l303.exe)
 DipDrv:  MaxL=1.
 Leave Link  303 at Tue Feb  7 16:34:06 2017, MaxMem=  1048576000 cpu:         0.3
 (Enter /mnt/data/applications/G09/g09/l401.exe)
 Initial guess from the checkpoint file:  "A_3_UFF.chk"
 B after Tr=    -0.034787   -0.002878   -0.005127
         Rot=    0.999932    0.000093    0.010061   -0.005879 Ang=   1.34 deg.
 Guess basis will be translated and rotated to current coordinates.
 JPrj=2 DoOrth=T DoCkMO=T.
 Generating alternative initial guess.
 ExpMin= 1.61D-01 ExpMax= 3.05D+03 ExpMxC= 4.57D+02 IAcc=1 IRadAn=         1 AccDes= 0.00D+00
 Harris functional with IExCor=  402 and IRadAn=       1 diagonalized for initial guess.
 HarFok:  IExCor=  402 AccDes= 0.00D+00 IRadAn=         1 IDoV= 1 UseB2=F ITyADJ=14
 ICtDFT=  3500011 ScaDFX=  1.000000  1.000000  1.000000  1.000000
 FoFCou: FMM=F IPFlag=           0 FMFlag=      100000 FMFlg1=           0
         NFxFlg=           0 DoJE=T BraDBF=F KetDBF=T FulRan=T
         wScrn=  0.000000 ICntrl=     500 IOpCl=  0 I1Cent=   200000004 NGrid=           0
         NMat0=    1 NMatS0=      1 NMatT0=    0 NMatD0=    1 NMtDS0=    0 NMtDT0=    0
 Symmetry not used in FoFCou.
 Harris En= -40.5601497880899    
 Leave Link  401 at Tue Feb  7 16:34:06 2017, MaxMem=  1048576000 cpu:         2.0
 (Enter /mnt/data/applications/G09/g09/l502.exe)
 Closed shell SCF:
 Using DIIS extrapolation, IDIIS=  1040.
 Two-electron integral symmetry not used.
 Keep R1 ints in memory in canonical form, NReq=911977.
 IVT=       13957 IEndB=       13957 NGot=  1048576000 MDV=  1048523818
 LenX=  1048523818 LenY=  1048522848
 Requested convergence on RMS density matrix=1.00D-08 within 100 cycles.
 Requested convergence on MAX density matrix=1.00D-06.
 Requested convergence on             energy=1.00D-06.
 No special actions if energy rises.
 FoFCou: FMM=F IPFlag=           0 FMFlag=           0 FMFlg1=           0
         NFxFlg=           0 DoJE=F BraDBF=F KetDBF=F FulRan=T
         wScrn=  0.000000 ICntrl=     600 IOpCl=  0 I1Cent=           0 NGrid=           0
         NMat0=    1 NMatS0=    276 NMatT0=    0 NMatD0=    1 NMtDS0=    0 NMtDT0=    0
 Symmetry not used in FoFCou.
 Integral accuracy reduced to 1.0D-05 until final iterations.

 Cycle   1  Pass 0  IDiag  1:
 E= -40.5182964857472    
 DIIS: error= 3.47D-04 at cycle   1 NSaved=   1.
 NSaved= 1 IEnMin= 1 EnMin= -40.5182964857472     IErMin= 1 ErrMin= 3.47D-04
[...]
 Leave Link  702 at Tue Feb  7 16:34:14 2017, MaxMem=  1048576000 cpu:         0.2
 (Enter /mnt/data/applications/G09/g09/l703.exe)
 Compute integral first derivatives, UseDBF=F ICtDFT=           0.
 Integral derivatives from FoFJK, PRISM(SPDF).
 Calling FoFJK, ICntrl=      2127 FMM=F ISym2X=0 I1Cent= 0 IOpClX= 0 NMat=1 NMatS=1 NMatT=0.
 FoFJK:  IHMeth= 1 ICntrl=    2127 DoSepK=F KAlg= 0 I1Cent=   0 FoldK=F
 IRaf=         0 NMat=   1 IRICut=       1 DoRegI=T DoRafI=F ISym2E= 0.
 FoFCou: FMM=F IPFlag=           0 FMFlag=      100000 FMFlg1=         800
         NFxFlg=           0 DoJE=F BraDBF=F KetDBF=F FulRan=T
         wScrn=  0.000000 ICntrl=    2127 IOpCl=  0 I1Cent=           0 NGrid=           0
         NMat0=    1 NMatS0=      1 NMatT0=    0 NMatD0=    1 NMtDS0=    0 NMtDT0=    0
 Symmetry not used in FoFCou.
 Leave Link  703 at Tue Feb  7 16:34:14 2017, MaxMem=  1048576000 cpu:         2.2
 (Enter /mnt/data/applications/G09/g09/l716.exe)
 Dipole        =-4.03614500D-03-1.80302717D-03-3.12191844D-03
 Cartesian Forces:  Max     0.002407732 RMS     0.000834072
 Leave Link  716 at Tue Feb  7 16:34:15 2017, MaxMem=  1048576000 cpu:         0.3
 (Enter /mnt/data/applications/G09/g09/l120.exe)
 SvSCFP is copying densities from files   528 and   530 to   603.
 ONIOM: saving gridpoint  2
 ONIOM: restoring gridpoint  1
 ONIOM: restoring gridpoint  1 on chk file.
 ONIOM: generating point  1 -- low level on model system.
 Leave Link  120 at Tue Feb  7 16:34:15 2017, MaxMem=  1048576000 cpu:         0.3
 (Enter /mnt/data/applications/G09/g09/l301.exe)
 Standard basis: Dummy (5D, 7F)
     5 basis functions,     5 primitive gaussians,     5 cartesian basis functions
     3 alpha electrons        3 beta electrons
       nuclear repulsion energy         5.6411284792 Hartrees.
 IExCor=    0 DFT=F Ex=HF Corr=None ExCW=0 ScaHFX=  1.000000
 ScaDFX=  1.000000  1.000000  1.000000  1.000000 ScalE2=  1.000000  1.000000
 IRadAn=      0 IRanWt=     -1 IRanGd=            0 ICorTp=0 IEmpDi=  4
 NAtoms=   11 NActive=    5 NUniq=    5 SFac= 1.00D+00 NAtFMM=   60 NAOKFM=F Big=F
 Integral buffers will be    131072 words long.
 Raffenetti 1 integral format.
 Two-electron integral symmetry is turned off.
 Leave Link  301 at Tue Feb  7 16:34:15 2017, MaxMem=  1048576000 cpu:         0.4
 (Enter /mnt/data/applications/G09/g09/l402.exe)
 UFF calculation of energy and first derivatives.
 Energy per function type:
 Direct Coulomb + vdW (small)                           0.000000000
 Direct Coulomb (large)                                 0.000000000
 Direct vdW (large)                                   273.786650724
 Non-direct Coulomb + vdW (small)                       0.000000000
 Non-direct Coulomb (large)                             0.000000000
 Non-direct vdW (large)                              -273.786650724
 Harmonic stretch III                                   0.000429519
 UFF 3-term bend                                        0.000052592
 Energy per function class:
        Coulomb               0.000000000
    Vanderwaals               0.000000000
     Stretching               0.000429519
        Bending               0.000052592
 Energy=    4.821114027E-04 NIter=   0.
 Dipole moment=       0.000000       0.000000       0.000000
 Leave Link  402 at Tue Feb  7 16:34:15 2017, MaxMem=  1048576000 cpu:         0.3
 (Enter /mnt/data/applications/G09/g09/l716.exe)
 Dipole        = 0.00000000D+00 0.00000000D+00 0.00000000D+00
 Cartesian Forces:  Max     0.008072622 RMS     0.002857200
 Leave Link  716 at Tue Feb  7 16:34:15 2017, MaxMem=  1048576000 cpu:         0.3
 (Enter /mnt/data/applications/G09/g09/l120.exe)
 ONIOM: saving gridpoint  1
 ONIOM: restoring gridpoint  3
 ONIOM: calculating energy.
 ONIOM: gridpoint  1 method:  low   system:  model energy:     0.000482111403
 ONIOM: gridpoint  2 method:  high  system:  model energy:   -40.518316084723
 ONIOM: gridpoint  3 method:  low   system:  real  energy:     0.002049466429
 ONIOM: extrapolated energy =     -40.516748729697
 ONIOM: calculating first derivatives.
 ONIOM: calculating electric field derivatives.
 ONIOM: Integrating ONIOM file  4 number   619
 ONIOM: Dipole        =-4.03614500D-03-1.80302717D-03-3.12191844D-03
 ONIOM: Dipole moment (Debye):
    X=    -0.0103    Y=    -0.0046    Z=    -0.0079  Tot=     0.0138
 ONIOM: Integrating ONIOM file  5 number   695
 Leave Link  120 at Tue Feb  7 16:34:15 2017, MaxMem=  1048576000 cpu:         0.0
 (Enter /mnt/data/applications/G09/g09/l716.exe)
 Dipole        =-4.03614500D-03-1.80302717D-03-3.12191844D-03
 -------------------------------------------------------------------
 Center     Atomic                   Forces (Hartrees/Bohr)
 Number     Number              X              Y              Z
 -------------------------------------------------------------------
      1        6           0.000008533   -0.000056358   -0.000093381
      2        1          -0.000014925    0.000018949   -0.000009276
      3        1          -0.000021573   -0.000019376    0.000007836
      4        1           0.000017322   -0.000010795   -0.000016626
      5        6          -0.000007686    0.000054427    0.000097739
      6        1           0.000000568    0.000013089    0.000015239
      7        1           0.000002062    0.000007047    0.000019542
      8        6           0.000007507   -0.000011634   -0.000026959
      9        1           0.000006323    0.000012883   -0.000003892
     10        1           0.000005992    0.000003339    0.000007801
     11        1          -0.000004124   -0.000011570    0.000001977
 -------------------------------------------------------------------
 Cartesian Forces:  Max     0.000097739 RMS     0.000029669
 Leave Link  716 at Tue Feb  7 16:34:15 2017, MaxMem=  1048576000 cpu:         0.3
 (Enter /mnt/data/applications/G09/g09/l103.exe)

 GradGradGradGradGradGradGradGradGradGradGradGradGradGradGradGradGradGrad
 Berny optimization.
 Using GEDIIS/GDIIS optimizer.
 FormGI is forming the generalized inverse of G from B-inverse, IUseBI=4.
 Internal  Forces:  Max     0.000125680 RMS     0.000023993
 Search for a local minimum.
 Step number   5 out of a maximum of   56
 All quantities printed in internal units (Hartrees-Bohrs-Radians)
 RMS Force = .23993D-04 SwitMx=.10000D-02 MixMth= 2
 Mixed Optimization -- En-DIIS/RFO-DIIS
 Swapping is turned off.
 Update second derivatives using D2CorX and points    1    2    3    4    5
 DE= -2.97D-06 DEPred=-3.10D-06 R= 9.59D-01
 TightC=F SS=  1.41D+00  RLast= 7.01D-03 DXNew= 8.4853D-01 2.1016D-02
 Trust test= 9.59D-01 RLast= 7.01D-03 DXMaxT set to 5.05D-01
 ITU=  1  1  1  1  0
     Eigenvalues ---    0.00237   0.00238   0.03613   0.04937   0.05545
     Eigenvalues ---    0.05667   0.05669   0.05718   0.08030   0.11973
     Eigenvalues ---    0.15952   0.15994   0.16000   0.16002   0.16226
     Eigenvalues ---    0.16628   0.27483   0.28462   0.31651   0.36839
     Eigenvalues ---    0.36966   0.37230   0.37230   0.37230   0.37231
     Eigenvalues ---    0.37264   0.40063
 En-DIIS/RFO-DIIS IScMMF=        0 using points:     5    4
 RFO step:  Lambda=-4.95223463D-08.
 NNeg= 0 NP= 2 Switch=  2.50D-03 Rises=F DC=  2.97D-06 SmlDif=  1.00D-05
 RMS Error=  0.4779883881D-04 NUsed= 2 EDIIS=F
 DidBck=F Rises=F RFO-DIIS coefs:    0.95129    0.04871
 Iteration  1 RMS(Cart)=  0.00035676 RMS(Int)=  0.00000008
 Iteration  2 RMS(Cart)=  0.00000009 RMS(Int)=  0.00000002
 ITry= 1 IFail=0 DXMaxC= 9.71D-04 DCOld= 1.00D+10 DXMaxT= 5.05D-01 DXLimC= 3.00D+00 Rises=F
 Variable       Old X    -DE/DX   Delta X   Delta X   Delta X     New X
                                 (Linear)    (Quad)   (Total)
    R1        2.06877  -0.00002   0.00002  -0.00008  -0.00006   2.06872
    R2        2.06876  -0.00002   0.00002  -0.00008  -0.00005   2.06871
    R3        2.06910  -0.00002   0.00002  -0.00006  -0.00004   2.06905
    R4        2.86161   0.00013   0.00008   0.00030   0.00039   2.86199
    R5        2.10042   0.00001   0.00006  -0.00004   0.00002   2.10044
    R6        2.10042   0.00001   0.00006  -0.00004   0.00002   2.10044
    R7        2.88387   0.00002   0.00003   0.00002   0.00005   2.88392
    R8        2.09937   0.00001   0.00005  -0.00003   0.00002   2.09939
    R9        2.09828   0.00001   0.00005  -0.00004   0.00002   2.09830
   R10        2.09938   0.00001   0.00005  -0.00004   0.00002   2.09940
    A1        1.90733  -0.00001  -0.00004   0.00000  -0.00004   1.90729
    A2        1.89628  -0.00002  -0.00006  -0.00004  -0.00010   1.89618
    A3        1.92566   0.00001   0.00007  -0.00002   0.00005   1.92571
    A4        1.89631  -0.00002  -0.00006  -0.00006  -0.00012   1.89619
    A5        1.92562   0.00002   0.00007   0.00005   0.00012   1.92574
    A6        1.91214   0.00002   0.00002   0.00007   0.00009   1.91223
    A7        1.90741   0.00003   0.00000   0.00019   0.00019   1.90760
    A8        1.90744   0.00003   0.00000   0.00012   0.00012   1.90756
    A9        1.94447  -0.00006   0.00006  -0.00029  -0.00023   1.94424
   A10        1.89114  -0.00002  -0.00003  -0.00002  -0.00006   1.89108
   A11        1.90630   0.00001  -0.00001   0.00004   0.00002   1.90632
   A12        1.90632   0.00001  -0.00002  -0.00003  -0.00005   1.90627
   A13        1.92586   0.00001   0.00003   0.00003   0.00006   1.92592
   A14        1.91171   0.00000  -0.00001   0.00002   0.00001   1.91172
   A15        1.92592  -0.00001   0.00003  -0.00011  -0.00008   1.92584
   A16        1.89611  -0.00001  -0.00002  -0.00001  -0.00003   1.89607
   A17        1.90764   0.00001  -0.00001   0.00007   0.00006   1.90771
   A18        1.89608   0.00000  -0.00002   0.00000  -0.00002   1.89607
    D1       -3.12058   0.00000   0.00002  -0.00035  -0.00033  -3.12091
    D2       -1.05378   0.00001  -0.00002  -0.00019  -0.00021  -1.05399
    D3        1.05443   0.00000   0.00000  -0.00033  -0.00034   1.05410
    D4        1.05331  -0.00001  -0.00002  -0.00036  -0.00039   1.05293
    D5        3.12012   0.00001  -0.00006  -0.00021  -0.00027   3.11985
    D6       -1.05486   0.00000  -0.00004  -0.00035  -0.00039  -1.05525
    D7       -1.03364  -0.00001   0.00000  -0.00037  -0.00037  -1.03401
    D8        1.03317   0.00001  -0.00004  -0.00021  -0.00026   1.03291
    D9        3.14138   0.00000  -0.00002  -0.00036  -0.00038   3.14100
   D10        1.05439   0.00000   0.00009   0.00063   0.00072   1.05510
   D11        3.14097   0.00000   0.00007   0.00065   0.00072  -3.14150
   D12       -1.05563   0.00000   0.00006   0.00060   0.00066  -1.05497
   D13       -1.05444   0.00000   0.00006   0.00055   0.00061  -1.05382
   D14        1.03215   0.00000   0.00004   0.00057   0.00061   1.03276
   D15        3.11874   0.00000   0.00003   0.00052   0.00055   3.11929
   D16       -3.11993   0.00000   0.00012   0.00058   0.00070  -3.11924
   D17       -1.03335   0.00000   0.00010   0.00059   0.00070  -1.03265
   D18        1.05324   0.00000   0.00009   0.00054   0.00063   1.05387
         Item               Value     Threshold  Converged?
 Maximum Force            0.000126     0.000450     YES
 RMS     Force            0.000024     0.000300     YES
 Maximum Displacement     0.000971     0.001800     YES
 RMS     Displacement     0.000357     0.001200     YES
 Predicted change in Energy=-5.254902D-08
 Optimization completed.
    -- Stationary point found.
                           ----------------------------
                           !   Optimized Parameters   !
                           ! (Angstroms and Degrees)  !
 --------------------------                            --------------------------
 ! Name  Definition              Value          Derivative Info.                !
 --------------------------------------------------------------------------------
 ! R1    R(1,2)                  1.0947         -DE/DX =    0.0                 !
 ! R2    R(1,3)                  1.0947         -DE/DX =    0.0                 !
 ! R3    R(1,4)                  1.0949         -DE/DX =    0.0                 !
 ! R4    R(1,5)                  1.5143         -DE/DX =    0.0001              !
 ! R5    R(5,6)                  1.1115         -DE/DX =    0.0                 !
 ! R6    R(5,7)                  1.1115         -DE/DX =    0.0                 !
 ! R7    R(5,8)                  1.5261         -DE/DX =    0.0                 !
 ! R8    R(8,9)                  1.1109         -DE/DX =    0.0                 !
 ! R9    R(8,10)                 1.1104         -DE/DX =    0.0                 !
 ! R10   R(8,11)                 1.1109         -DE/DX =    0.0                 !
 ! A1    A(2,1,3)              109.2821         -DE/DX =    0.0                 !
 ! A2    A(2,1,4)              108.6489         -DE/DX =    0.0                 !
 ! A3    A(2,1,5)              110.3321         -DE/DX =    0.0                 !
 ! A4    A(3,1,4)              108.6504         -DE/DX =    0.0                 !
 ! A5    A(3,1,5)              110.3296         -DE/DX =    0.0                 !
 ! A6    A(4,1,5)              109.5578         -DE/DX =    0.0                 !
 ! A7    A(1,5,6)              109.2865         -DE/DX =    0.0                 !
 ! A8    A(1,5,7)              109.2883         -DE/DX =    0.0                 !
 ! A9    A(1,5,8)              111.4097         -DE/DX =   -0.0001              !
 ! A10   A(6,5,7)              108.3543         -DE/DX =    0.0                 !
 ! A11   A(6,5,8)              109.2231         -DE/DX =    0.0                 !
 ! A12   A(7,5,8)              109.2239         -DE/DX =    0.0                 !
 ! A13   A(5,8,9)              110.3439         -DE/DX =    0.0                 !
 ! A14   A(5,8,10)             109.5328         -DE/DX =    0.0                 !
 ! A15   A(5,8,11)             110.3471         -DE/DX =    0.0                 !
 ! A16   A(9,8,10)             108.6389         -DE/DX =    0.0                 !
 ! A17   A(9,8,11)             109.3            -DE/DX =    0.0                 !
 ! A18   A(10,8,11)            108.6375         -DE/DX =    0.0                 !
 ! D1    D(2,1,5,6)           -178.7962         -DE/DX =    0.0                 !
 ! D2    D(2,1,5,7)            -60.3771         -DE/DX =    0.0                 !
 ! D3    D(2,1,5,8)             60.4145         -DE/DX =    0.0                 !
 ! D4    D(3,1,5,6)             60.3505         -DE/DX =    0.0                 !
 ! D5    D(3,1,5,7)            178.7696         -DE/DX =    0.0                 !
 ! D6    D(3,1,5,8)            -60.4389         -DE/DX =    0.0                 !
 ! D7    D(4,1,5,6)            -59.2229         -DE/DX =    0.0                 !
 ! D8    D(4,1,5,7)             59.1962         -DE/DX =    0.0                 !
 ! D9    D(4,1,5,8)            179.9877         -DE/DX =    0.0                 !
 ! D10   D(1,5,8,9)             60.4118         -DE/DX =    0.0                 !
 ! D11   D(1,5,8,10)          -180.0358         -DE/DX =    0.0                 !
 ! D12   D(1,5,8,11)           -60.4831         -DE/DX =    0.0                 !
 ! D13   D(6,5,8,9)            -60.4147         -DE/DX =    0.0                 !
 ! D14   D(6,5,8,10)            59.1377         -DE/DX =    0.0                 !
 ! D15   D(6,5,8,11)           178.6904         -DE/DX =    0.0                 !
 ! D16   D(7,5,8,9)           -178.7589         -DE/DX =    0.0                 !
 ! D17   D(7,5,8,10)           -59.2066         -DE/DX =    0.0                 !
 ! D18   D(7,5,8,11)            60.3462         -DE/DX =    0.0                 !
 --------------------------------------------------------------------------------
 Lowest energy point so far.  Saving SCF results.
 GradGradGradGradGradGradGradGradGradGradGradGradGradGradGradGradGradGrad

 Largest change from initial coordinates is atom    9       0.048 Angstoms.
 Leave Link  103 at Tue Feb  7 16:34:15 2017, MaxMem=  1048576000 cpu:         0.1
 (Enter /mnt/data/applications/G09/g09/l202.exe)
                          Input orientation:                          
 ---------------------------------------------------------------------
 Center     Atomic      Atomic             Coordinates (Angstroms)
 Number     Number       Type             X           Y           Z
 ---------------------------------------------------------------------
      1          6    10061003        0.443386   -2.952736    0.005101
      2          1    10011000        0.785989   -3.992388   -0.009779
      3          1    10011000        0.785931   -2.446196   -0.902943
      4          1    10011000       -0.651423   -2.945031    0.018539
      5          6    10061003        0.970446   -2.242600    1.234333
      6          1    10011000        0.594916   -1.196504    1.243267
      7          1    10011000        0.594622   -2.757172    2.145042
      8          6    10061003        2.496273   -2.228931    1.258464
      9          1    10011000        2.891920   -1.698430    0.366151
     10          1    10011000        2.848442   -1.701598    2.169948
     11          1    10011000        2.891678   -3.267014    1.273767
 ---------------------------------------------------------------------
                    Distance matrix (angstroms):
                    1          2          3          4          5
     1  C    0.000000
     2  H    1.094749   0.000000
     3  H    1.094743   1.785624   0.000000
     4  H    1.094918   1.778738   1.778750   0.000000
     5  C    1.514298   2.154901   2.154865   2.145233   0.000000
     6  H    2.154151   3.069789   2.490869   2.471976   1.111494
     7  H    2.154174   2.491111   3.069774   2.471827   1.111494
     8  C    2.511804   2.764651   2.764806   3.458064   1.526079
     9  H    2.774699   3.136640   2.570008   3.772284   2.177595
    10  H    3.469323   3.775267   3.775054   4.292288   2.166778
    11  H    2.775323   2.570522   3.137830   3.772642   2.177639
                    6          7          8          9         10
     6  H    0.000000
     7  H    1.802466   0.000000
     8  C    2.163630   2.163640   0.000000
     9  H    2.509479   3.092405   1.110941   0.000000
    10  H    2.488420   2.488888   1.110362   1.804323   0.000000
    11  H    3.092419   2.509088   1.110944   1.812243   1.804310
                   11
    11  H    0.000000
 Symmetry turned off by external request.
 Stoichiometry    C3H8
 Framework group  C1[X(C3H8)]
 Deg. of freedom    27
 Full point group                 C1      NOp   1
 Rotational constants (GHZ):     28.9238106      8.6101006      7.6144324
 Leave Link  202 at Tue Feb  7 16:34:15 2017, MaxMem=  1048576000 cpu:         0.0
 (Enter /mnt/data/applications/G09/g09/l9999.exe)
 1\1\GINC-KIMIK2092\FOpt\ONIOM(B3LYP/6-31G(d):UFF)\Mixed\C3H8\IFUNES\07
 -Feb-2017\0\\#p opt=nomicro oniom(B3LYP/6-31G*:UFF) geom=connectivity 
 nosymm scf(maxcyc=100)\\ONIOM(QM:MM) OPT FREQ with SICTWO V1.0\\0,1\C,
 0.4433862301,-2.9527360351,0.0051007213\H,0.7859886937,-3.9923881261,-
 0.0097792365\H,0.7859309917,-2.4461957822,-0.9029426965\H,-0.651422584
 3,-2.9450314924,0.0185392572\C,0.9704462695,-2.2426000493,1.2343328672
 \H,0.5949163776,-1.196503769,1.2432665013\H,0.5946218423,-2.757172306,
 2.1450417475\C,2.4962733842,-2.2289310025,1.2584641499\H,2.891919742,-
 1.6984301756,0.3661507608\H,2.8484417844,-1.7015981183,2.1699475521\H,
 2.8916778088,-3.2670141735,1.2737670757\\Version=EM64L-G09RevD.01\HF=0
 .0004821\RMSD=2.127e-09\RMSF=2.967e-05\Dipole=-0.0040361,-0.001803,-0.
 0031219\PG=C01 [X(C3H8)]\\@


 YE HAVE SOWN MUCH, AND BRING IN LITTLE.
 YE EAT, BUT YE HAVE NOT ENOUGH.
 YE DRINK, BUT YE ARE NOT FILLED WITH DRINK.
 YE CLOTHE YOU, BUT THERE IS NONE WARM.
 AND HE THAT EARNETH WAGES EARNETH WAGES TO PUT
 IT INTO A BAG WITH HOLES.
                                     HAGGAI I,6
 Job cpu time:       0 days  0 hours  1 minutes 41.3 seconds.
 File lengths (MBytes):  RWF=      5 Int=      0 D2E=      0 Chk=      2 Scr=      1
 Normal termination of Gaussian 09 at Tue Feb  7 16:34:16 2017.
