
     ######################################################################
   ##########################################################################
  ###                                                                      ###
 ###            TINKER  ---  Software Tools for Molecular Design            ###
 ##                                                                          ##
 ##                        Version 7.1  February 2015                        ##
 ##                                                                          ##
 ##               Copyright (c)  Jay William Ponder  1990-2015               ##
 ###                           All Rights Reserved                          ###
  ###                                                                      ###
   ##########################################################################
     ######################################################################


 Total Potential Energy :                  0.0288 Kcal/mole

 Potential Energy Breakdown by Individual Components :

  Energy      EB          EA          EBA         EUB         EAA         EOPB
  Terms       EOPD        EID         EIT         ET          EPT         EBT
              EAT         ETT         EV          EC          ECD         ED
              EM          EP          ER          ES          ELF         EG
              EX

            0.0004      0.0273      0.0011      0.0000      0.0000      0.0000
            0.0000      0.0000      0.0000      0.0000      0.0000      0.0000
            0.0000      0.0000      0.0000      0.0000      0.0000      0.0000
            0.0000      0.0000      0.0000      0.0000      0.0000      0.0000
            0.0000

 Cartesian Gradient Breakdown by Individual Components :

  Atom      d EB        d EA        d EBA       d EUB       d EAA       d EOPB
  Axis      d EOPD      d EID       d EIT       d ET        d EPT       d EBT
  Type      d EAT       d ETT       d EV        d EC        d ECD       d ED
            d EM        d EP        d ER        d ES        d ELF       d EG
            d EX

     1     -0.0025     -0.0024      0.0006      0.0000      0.0000      0.0000
     X      0.0000      0.0000      0.0000      0.0000      0.0000      0.0000
 Anlyt      0.0000      0.0000      0.0000      0.0000      0.0000      0.0000
            0.0000      0.0000      0.0000      0.0000      0.0000      0.0000
            0.0000

     1      0.0018      0.0003     -0.0002      0.0000      0.0000      0.0000
     Y      0.0000      0.0000      0.0000      0.0000      0.0000      0.0000
 Anlyt      0.0000      0.0000      0.0000      0.0000      0.0000      0.0000
            0.0000      0.0000      0.0000      0.0000      0.0000      0.0000
            0.0000

     1      0.0000      0.0000     -0.0000      0.0000      0.0000      0.0000
     Z      0.0000      0.0000      0.0000      0.0000      0.0000      0.0000
 Anlyt      0.0000      0.0000      0.0000      0.0000      0.0000      0.0000
            0.0000      0.0000      0.0000      0.0000      0.0000      0.0000
            0.0000

     2      0.1189      0.0008      0.1834      0.0000      0.0000      0.0000
     X      0.0000      0.0000      0.0000      0.0000      0.0000      0.0000
 Anlyt      0.0000      0.0000      0.0000      0.0000      0.0000      0.0000
            0.0000      0.0000      0.0000      0.0000      0.0000      0.0000
            0.0000

     2     -0.3364      0.0003     -0.5189      0.0000      0.0000      0.0000
     Y      0.0000      0.0000      0.0000      0.0000      0.0000      0.0000
 Anlyt      0.0000      0.0000      0.0000      0.0000      0.0000      0.0000
            0.0000      0.0000      0.0000      0.0000      0.0000      0.0000
            0.0000

     2     -0.0000     -0.0000     -0.0000      0.0000      0.0000      0.0000
     Z      0.0000      0.0000      0.0000      0.0000      0.0000      0.0000
 Anlyt      0.0000      0.0000      0.0000      0.0000      0.0000      0.0000
            0.0000      0.0000      0.0000      0.0000      0.0000      0.0000
            0.0000

     3      0.1183      0.0008      0.1834      0.0000      0.0000      0.0000
     X      0.0000      0.0000      0.0000      0.0000      0.0000      0.0000
 Anlyt      0.0000      0.0000      0.0000      0.0000      0.0000      0.0000
            0.0000      0.0000      0.0000      0.0000      0.0000      0.0000
            0.0000

     3      0.1673     -0.0003      0.2595      0.0000      0.0000      0.0000
     Y      0.0000      0.0000      0.0000      0.0000      0.0000      0.0000
 Anlyt      0.0000      0.0000      0.0000      0.0000      0.0000      0.0000
            0.0000      0.0000      0.0000      0.0000      0.0000      0.0000
            0.0000

     3      0.2897     -0.0002      0.4494      0.0000      0.0000      0.0000
     Z      0.0000      0.0000      0.0000      0.0000      0.0000      0.0000
 Anlyt      0.0000      0.0000      0.0000      0.0000      0.0000      0.0000
            0.0000      0.0000      0.0000      0.0000      0.0000      0.0000
            0.0000

     4      0.1183      0.0008      0.1834      0.0000      0.0000      0.0000
     X      0.0000      0.0000      0.0000      0.0000      0.0000      0.0000
 Anlyt      0.0000      0.0000      0.0000      0.0000      0.0000      0.0000
            0.0000      0.0000      0.0000      0.0000      0.0000      0.0000
            0.0000

     4      0.1673     -0.0003      0.2595      0.0000      0.0000      0.0000
     Y      0.0000      0.0000      0.0000      0.0000      0.0000      0.0000
 Anlyt      0.0000      0.0000      0.0000      0.0000      0.0000      0.0000
            0.0000      0.0000      0.0000      0.0000      0.0000      0.0000
            0.0000

     4     -0.2897      0.0002     -0.4494      0.0000      0.0000      0.0000
     Z      0.0000      0.0000      0.0000      0.0000      0.0000      0.0000
 Anlyt      0.0000      0.0000      0.0000      0.0000      0.0000      0.0000
            0.0000      0.0000      0.0000      0.0000      0.0000      0.0000
            0.0000

     5     -0.3530     -0.0000     -0.5509      0.0000      0.0000      0.0000
     X      0.0000      0.0000      0.0000      0.0000      0.0000      0.0000
 Anlyt      0.0000      0.0000      0.0000      0.0000      0.0000      0.0000
            0.0000      0.0000      0.0000      0.0000      0.0000      0.0000
            0.0000

     5      0.0000     -0.0000      0.0000      0.0000      0.0000      0.0000
     Y      0.0000      0.0000      0.0000      0.0000      0.0000      0.0000
 Anlyt      0.0000      0.0000      0.0000      0.0000      0.0000      0.0000
            0.0000      0.0000      0.0000      0.0000      0.0000      0.0000
            0.0000

     5     -0.0000      0.0000     -0.0000      0.0000      0.0000      0.0000
     Z      0.0000      0.0000      0.0000      0.0000      0.0000      0.0000
 Anlyt      0.0000      0.0000      0.0000      0.0000      0.0000      0.0000
            0.0000      0.0000      0.0000      0.0000      0.0000      0.0000
            0.0000

 Cartesian Gradient Breakdown over Individual Atoms :

  Type      Atom              dE/dX       dE/dY       dE/dZ          Norm

 Anlyt         1            -0.0043      0.0019      0.0000        0.0048
 Anlyt         2             0.3032     -0.8550     -0.0000        0.9072
 Anlyt         3             0.3025      0.4265      0.7390        0.9053
 Anlyt         4             0.3025      0.4265     -0.7390        0.9053
 Anlyt         5            -0.9039      0.0000      0.0000        0.9039

 Total Gradient Norm and RMS Gradient per Atom :

 Anlyt      Total Gradient Norm Value                1.8108

 Anlyt      RMS Gradient over All Atoms              0.8098
