
     ######################################################################
   ##########################################################################
  ###                                                                      ###
 ###            TINKER  ---  Software Tools for Molecular Design            ###
 ##                                                                          ##
 ##                        Version 7.1  February 2015                        ##
 ##                                                                          ##
 ##               Copyright (c)  Jay William Ponder  1990-2015               ##
 ###                           All Rights Reserved                          ###
  ###                                                                      ###
   ##########################################################################
     ######################################################################


 Total Potential Energy :                  0.2463 Kcal/mole

 Potential Energy Breakdown by Individual Components :

  Energy      EB          EA          EBA         EUB         EAA         EOPB
  Terms       EOPD        EID         EIT         ET          EPT         EBT
              EAT         ETT         EV          EC          ECD         ED
              EM          EP          ER          ES          ELF         EG
              EX

            0.0581      0.1657      0.0226      0.0000      0.0000      0.0000
            0.0000      0.0000      0.0000      0.0000      0.0000      0.0000
            0.0000      0.0000      0.0000      0.0000      0.0000      0.0000
            0.0000      0.0000      0.0000      0.0000      0.0000      0.0000
            0.0000

 Cartesian Gradient Breakdown by Individual Components :

  Atom      d EB        d EA        d EBA       d EUB       d EAA       d EOPB
  Axis      d EOPD      d EID       d EIT       d ET        d EPT       d EBT
  Type      d EAT       d ETT       d EV        d EC        d ECD       d ED
            d EM        d EP        d ER        d ES        d ELF       d EG
            d EX

     1     -2.0405      3.8110     -0.5290      0.0000      0.0000      0.0000
     X      0.0000      0.0000      0.0000      0.0000      0.0000      0.0000
 Anlyt      0.0000      0.0000      0.0000      0.0000      0.0000      0.0000
            0.0000      0.0000      0.0000      0.0000      0.0000      0.0000
            0.0000

     1     -2.8790      5.3900     -0.7486      0.0000      0.0000      0.0000
     Y      0.0000      0.0000      0.0000      0.0000      0.0000      0.0000
 Anlyt      0.0000      0.0000      0.0000      0.0000      0.0000      0.0000
            0.0000      0.0000      0.0000      0.0000      0.0000      0.0000
            0.0000

     1     -4.6168      6.9473     -0.9078      0.0000      0.0000      0.0000
     Z      0.0000      0.0000      0.0000      0.0000      0.0000      0.0000
 Anlyt      0.0000      0.0000      0.0000      0.0000      0.0000      0.0000
            0.0000      0.0000      0.0000      0.0000      0.0000      0.0000
            0.0000

     2      0.6407     -1.7726     -0.0506      0.0000      0.0000      0.0000
     X      0.0000      0.0000      0.0000      0.0000      0.0000      0.0000
 Anlyt      0.0000      0.0000      0.0000      0.0000      0.0000      0.0000
            0.0000      0.0000      0.0000      0.0000      0.0000      0.0000
            0.0000

     2     -1.8950     -0.5853     -0.0667      0.0000      0.0000      0.0000
     Y      0.0000      0.0000      0.0000      0.0000      0.0000      0.0000
 Anlyt      0.0000      0.0000      0.0000      0.0000      0.0000      0.0000
            0.0000      0.0000      0.0000      0.0000      0.0000      0.0000
            0.0000

     2     -0.0100     -2.6578     -0.1128      0.0000      0.0000      0.0000
     Z      0.0000      0.0000      0.0000      0.0000      0.0000      0.0000
 Anlyt      0.0000      0.0000      0.0000      0.0000      0.0000      0.0000
            0.0000      0.0000      0.0000      0.0000      0.0000      0.0000
            0.0000

     3      0.6549     -1.8057      0.0173      0.0000      0.0000      0.0000
     X      0.0000      0.0000      0.0000      0.0000      0.0000      0.0000
 Anlyt      0.0000      0.0000      0.0000      0.0000      0.0000      0.0000
            0.0000      0.0000      0.0000      0.0000      0.0000      0.0000
            0.0000

     3      0.9267     -2.5551      0.0246      0.0000      0.0000      0.0000
     Y      0.0000      0.0000      0.0000      0.0000      0.0000      0.0000
 Anlyt      0.0000      0.0000      0.0000      0.0000      0.0000      0.0000
            0.0000      0.0000      0.0000      0.0000      0.0000      0.0000
            0.0000

     3     -1.7933     -1.9799     -0.2967      0.0000      0.0000      0.0000
     Z      0.0000      0.0000      0.0000      0.0000      0.0000      0.0000
 Anlyt      0.0000      0.0000      0.0000      0.0000      0.0000      0.0000
            0.0000      0.0000      0.0000      0.0000      0.0000      0.0000
            0.0000

     4     -1.9950      0.0394     -0.0459      0.0000      0.0000      0.0000
     X      0.0000      0.0000      0.0000      0.0000      0.0000      0.0000
 Anlyt      0.0000      0.0000      0.0000      0.0000      0.0000      0.0000
            0.0000      0.0000      0.0000      0.0000      0.0000      0.0000
            0.0000

     4     -0.0282     -1.8659     -0.0699      0.0000      0.0000      0.0000
     Y      0.0000      0.0000      0.0000      0.0000      0.0000      0.0000
 Anlyt      0.0000      0.0000      0.0000      0.0000      0.0000      0.0000
            0.0000      0.0000      0.0000      0.0000      0.0000      0.0000
            0.0000

     4     -0.0098     -2.6568     -0.1128      0.0000      0.0000      0.0000
     Z      0.0000      0.0000      0.0000      0.0000      0.0000      0.0000
 Anlyt      0.0000      0.0000      0.0000      0.0000      0.0000      0.0000
            0.0000      0.0000      0.0000      0.0000      0.0000      0.0000
            0.0000

     5      2.7398     -0.2721      0.6083      0.0000      0.0000      0.0000
     X      0.0000      0.0000      0.0000      0.0000      0.0000      0.0000
 Anlyt      0.0000      0.0000      0.0000      0.0000      0.0000      0.0000
            0.0000      0.0000      0.0000      0.0000      0.0000      0.0000
            0.0000

     5      3.8755     -0.3837      0.8606      0.0000      0.0000      0.0000
     Y      0.0000      0.0000      0.0000      0.0000      0.0000      0.0000
 Anlyt      0.0000      0.0000      0.0000      0.0000      0.0000      0.0000
            0.0000      0.0000      0.0000      0.0000      0.0000      0.0000
            0.0000

     5      6.4300      0.3472      1.4300      0.0000      0.0000      0.0000
     Z      0.0000      0.0000      0.0000      0.0000      0.0000      0.0000
 Anlyt      0.0000      0.0000      0.0000      0.0000      0.0000      0.0000
            0.0000      0.0000      0.0000      0.0000      0.0000      0.0000
            0.0000

 Cartesian Gradient Breakdown over Individual Atoms :

  Type      Atom              dE/dX       dE/dY       dE/dZ          Norm

 Anlyt         1             1.2415      1.7623      1.4227        2.5829
 Anlyt         2            -1.1825     -2.5470     -2.7806        3.9519
 Anlyt         3            -1.1335     -1.6038     -4.0699        4.5190
 Anlyt         4            -2.0014     -1.9640     -2.7794        3.9482
 Anlyt         5             3.0760      4.3524      8.2072        9.7859

 Total Gradient Norm and RMS Gradient per Atom :

 Anlyt      Total Gradient Norm Value               12.4121

 Anlyt      RMS Gradient over All Atoms              5.5509
