
     ######################################################################
   ##########################################################################
  ###                                                                      ###
 ###            TINKER  ---  Software Tools for Molecular Design            ###
 ##                                                                          ##
 ##                        Version 7.1  February 2015                        ##
 ##                                                                          ##
 ##               Copyright (c)  Jay William Ponder  1990-2015               ##
 ###                           All Rights Reserved                          ###
  ###                                                                      ###
   ##########################################################################
     ######################################################################


 Total Potential Energy :                  0.3518 Kcal/mole

 Potential Energy Breakdown by Individual Components :

  Energy      EB          EA          EBA         EUB         EAA         EOPB
  Terms       EOPD        EID         EIT         ET          EPT         EBT
              EAT         ETT         EV          EC          ECD         ED
              EM          EP          ER          ES          ELF         EG
              EX

            0.1122      0.2051      0.0345      0.0000      0.0000      0.0000
            0.0000      0.0000      0.0000      0.0000      0.0000      0.0000
            0.0000      0.0000      0.0000      0.0000      0.0000      0.0000
            0.0000      0.0000      0.0000      0.0000      0.0000      0.0000
            0.0000

 Cartesian Gradient Breakdown by Individual Components :

  Atom      d EB        d EA        d EBA       d EUB       d EAA       d EOPB
  Axis      d EOPD      d EID       d EIT       d ET        d EPT       d EBT
  Type      d EAT       d ETT       d EV        d EC        d ECD       d ED
            d EM        d EP        d ER        d ES        d ELF       d EG
            d EX

     1     -2.9465      3.6294     -0.4370      0.0000      0.0000      0.0000
     X      0.0000      0.0000      0.0000      0.0000      0.0000      0.0000
 Anlyt      0.0000      0.0000      0.0000      0.0000      0.0000      0.0000
            0.0000      0.0000      0.0000      0.0000      0.0000      0.0000
            0.0000

     1     -4.1603      5.1444     -0.6205      0.0000      0.0000      0.0000
     Y      0.0000      0.0000      0.0000      0.0000      0.0000      0.0000
 Anlyt      0.0000      0.0000      0.0000      0.0000      0.0000      0.0000
            0.0000      0.0000      0.0000      0.0000      0.0000      0.0000
            0.0000

     1     -7.2097      8.9017     -1.0730      0.0000      0.0000      0.0000
     Z      0.0000      0.0000      0.0000      0.0000      0.0000      0.0000
 Anlyt      0.0000      0.0000      0.0000      0.0000      0.0000      0.0000
            0.0000      0.0000      0.0000      0.0000      0.0000      0.0000
            0.0000

     2      0.7427     -1.8710     -0.0807      0.0000      0.0000      0.0000
     X      0.0000      0.0000      0.0000      0.0000      0.0000      0.0000
 Anlyt      0.0000      0.0000      0.0000      0.0000      0.0000      0.0000
            0.0000      0.0000      0.0000      0.0000      0.0000      0.0000
            0.0000

     2     -2.1955     -0.5458     -0.0820      0.0000      0.0000      0.0000
     Y      0.0000      0.0000      0.0000      0.0000      0.0000      0.0000
 Anlyt      0.0000      0.0000      0.0000      0.0000      0.0000      0.0000
            0.0000      0.0000      0.0000      0.0000      0.0000      0.0000
            0.0000

     2     -0.0568     -3.3704     -0.1790      0.0000      0.0000      0.0000
     Z      0.0000      0.0000      0.0000      0.0000      0.0000      0.0000
 Anlyt      0.0000      0.0000      0.0000      0.0000      0.0000      0.0000
            0.0000      0.0000      0.0000      0.0000      0.0000      0.0000
            0.0000

     3      0.7396     -1.8709     -0.0806      0.0000      0.0000      0.0000
     X      0.0000      0.0000      0.0000      0.0000      0.0000      0.0000
 Anlyt      0.0000      0.0000      0.0000      0.0000      0.0000      0.0000
            0.0000      0.0000      0.0000      0.0000      0.0000      0.0000
            0.0000

     3      1.0475     -2.6491     -0.1138      0.0000      0.0000      0.0000
     Y      0.0000      0.0000      0.0000      0.0000      0.0000      0.0000
 Anlyt      0.0000      0.0000      0.0000      0.0000      0.0000      0.0000
            0.0000      0.0000      0.0000      0.0000      0.0000      0.0000
            0.0000

     3     -1.9269     -2.1582     -0.1610      0.0000      0.0000      0.0000
     Z      0.0000      0.0000      0.0000      0.0000      0.0000      0.0000
 Anlyt      0.0000      0.0000      0.0000      0.0000      0.0000      0.0000
            0.0000      0.0000      0.0000      0.0000      0.0000      0.0000
            0.0000

     4     -2.3120      0.1099     -0.0516      0.0000      0.0000      0.0000
     X      0.0000      0.0000      0.0000      0.0000      0.0000      0.0000
 Anlyt      0.0000      0.0000      0.0000      0.0000      0.0000      0.0000
            0.0000      0.0000      0.0000      0.0000      0.0000      0.0000
            0.0000

     4     -0.0336     -1.9475     -0.1033      0.0000      0.0000      0.0000
     Y      0.0000      0.0000      0.0000      0.0000      0.0000      0.0000
 Anlyt      0.0000      0.0000      0.0000      0.0000      0.0000      0.0000
            0.0000      0.0000      0.0000      0.0000      0.0000      0.0000
            0.0000

     4     -0.0559     -3.3733     -0.1791      0.0000      0.0000      0.0000
     Z      0.0000      0.0000      0.0000      0.0000      0.0000      0.0000
 Anlyt      0.0000      0.0000      0.0000      0.0000      0.0000      0.0000
            0.0000      0.0000      0.0000      0.0000      0.0000      0.0000
            0.0000

     5      3.7763      0.0025      0.6499      0.0000      0.0000      0.0000
     X      0.0000      0.0000      0.0000      0.0000      0.0000      0.0000
 Anlyt      0.0000      0.0000      0.0000      0.0000      0.0000      0.0000
            0.0000      0.0000      0.0000      0.0000      0.0000      0.0000
            0.0000

     5      5.3419     -0.0021      0.9196      0.0000      0.0000      0.0000
     Y      0.0000      0.0000      0.0000      0.0000      0.0000      0.0000
 Anlyt      0.0000      0.0000      0.0000      0.0000      0.0000      0.0000
            0.0000      0.0000      0.0000      0.0000      0.0000      0.0000
            0.0000

     5      9.2493      0.0002      1.5921      0.0000      0.0000      0.0000
     Z      0.0000      0.0000      0.0000      0.0000      0.0000      0.0000
 Anlyt      0.0000      0.0000      0.0000      0.0000      0.0000      0.0000
            0.0000      0.0000      0.0000      0.0000      0.0000      0.0000
            0.0000

 Cartesian Gradient Breakdown over Individual Atoms :

  Type      Atom              dE/dX       dE/dY       dE/dZ          Norm

 Anlyt         1             0.2459      0.3636      0.6190        0.7588
 Anlyt         2            -1.2090     -2.8232     -3.6062        4.7367
 Anlyt         3            -1.2119     -1.7154     -4.2460        4.7371
 Anlyt         4            -2.2537     -2.0844     -3.6083        4.7375
 Anlyt         5             4.4287      6.2594     10.8416       13.2790

 Total Gradient Norm and RMS Gradient per Atom :

 Anlyt      Total Gradient Norm Value               15.6278

 Anlyt      RMS Gradient over All Atoms              6.9890
