
     ######################################################################
   ##########################################################################
  ###                                                                      ###
 ###            TINKER  ---  Software Tools for Molecular Design            ###
 ##                                                                          ##
 ##                        Version 7.1  February 2015                        ##
 ##                                                                          ##
 ##               Copyright (c)  Jay William Ponder  1990-2015               ##
 ###                           All Rights Reserved                          ###
  ###                                                                      ###
   ##########################################################################
     ######################################################################


 Total Potential Energy :                  3.0230 Kcal/mole

 Potential Energy Breakdown by Individual Components :

  Energy      EB          EA          EBA         EUB         EAA         EOPB
  Terms       EOPD        EID         EIT         ET          EPT         EBT
              EAT         ETT         EV          EC          ECD         ED
              EM          EP          ER          ES          ELF         EG
              EX

            0.8164      1.1438     -0.0153      0.0000      0.0000      0.0000
            0.0000      0.0000      0.0000     -0.2422      0.0000      0.0000
            0.0000      0.0000      1.3203      0.0000      0.0000      0.0000
            0.0000      0.0000      0.0000      0.0000      0.0000      0.0000
            0.0000

 Cartesian Gradient Breakdown by Individual Components :

  Atom      d EB        d EA        d EBA       d EUB       d EAA       d EOPB
  Axis      d EOPD      d EID       d EIT       d ET        d EPT       d EBT
  Type      d EAT       d ETT       d EV        d EC        d ECD       d ED
            d EM        d EP        d ER        d ES        d ELF       d EG
            d EX

     1     12.1791      3.8966      1.1134      0.0000      0.0000     -0.0000
     X      0.0000      0.0000      0.0000     -0.2709      0.0000      0.0000
 Anlyt      0.0000      0.0000      0.0000      0.0000      0.0000      0.0000
            0.0000      0.0000      0.0000      0.0000      0.0000      0.0000
            0.0000

     1     30.2712     -0.6177      2.8348      0.0000      0.0000     -0.0005
     Y      0.0000      0.0000      0.0000     -0.4980      0.0000      0.0000
 Anlyt      0.0000      0.0000      0.0000      0.0000      0.0000      0.0000
            0.0000      0.0000      0.0000      0.0000      0.0000      0.0000
            0.0000

     1      8.3732     -0.1548      0.7847      0.0000      0.0000      0.0019
     Z      0.0000      0.0000      0.0000     -0.2211      0.0000      0.0000
 Anlyt      0.0000      0.0000      0.0000      0.0000      0.0000      0.0000
            0.0000      0.0000      0.0000      0.0000      0.0000      0.0000
            0.0000

     2     -5.8287     -4.2737     -3.9484      0.0000      0.0000      0.0000
     X      0.0000      0.0000      0.0000     -0.0001      0.0000      0.0000
 Anlyt      0.0000      0.0000     -1.7309      0.0000      0.0000      0.0000
            0.0000      0.0000      0.0000      0.0000      0.0000      0.0000
            0.0000

     2    -11.2058      2.0735     -7.2457      0.0000      0.0000      0.0002
     Y      0.0000      0.0000      0.0000     -0.0059      0.0000      0.0000
 Anlyt      0.0000      0.0000     -1.4933      0.0000      0.0000      0.0000
            0.0000      0.0000      0.0000      0.0000      0.0000      0.0000
            0.0000

     2     -3.1085      0.5388     -2.0112      0.0000      0.0000     -0.0008
     Z      0.0000      0.0000      0.0000      0.0215      0.0000      0.0000
 Anlyt      0.0000      0.0000     -0.4169      0.0000      0.0000      0.0000
            0.0000      0.0000      0.0000      0.0000      0.0000      0.0000
            0.0000

     3    -15.4359      8.3996      3.5147      0.0000      0.0000      0.0000
     X      0.0000      0.0000      0.0000     -0.1470      0.0000      0.0000
 Anlyt      0.0000      0.0000      2.0327      0.0000      0.0000      0.0000
            0.0000      0.0000      0.0000      0.0000      0.0000      0.0000
            0.0000

     3      2.3480      2.5340      2.0069      0.0000      0.0000      0.0002
     Y      0.0000      0.0000      0.0000      1.7320      0.0000      0.0000
 Anlyt      0.0000      0.0000     -1.7910      0.0000      0.0000      0.0000
            0.0000      0.0000      0.0000      0.0000      0.0000      0.0000
            0.0000

     3      0.5632      0.8289      0.5585      0.0000      0.0000     -0.0006
     Z      0.0000      0.0000      0.0000      0.5300      0.0000      0.0000
 Anlyt      0.0000      0.0000     -0.4752      0.0000      0.0000      0.0000
            0.0000      0.0000      0.0000      0.0000      0.0000      0.0000
            0.0000

     4     -0.8944     -3.6686     -0.6639      0.0000      0.0000      0.0000
     X      0.0000      0.0000      0.0000      0.0551      0.0000      0.0000
 Anlyt      0.0000      0.0000      1.3170      0.0000      0.0000      0.0000
            0.0000      0.0000      0.0000      0.0000      0.0000      0.0000
            0.0000

     4     -0.7946     -2.5590      0.0123      0.0000      0.0000      0.0000
     Y      0.0000      0.0000      0.0000     -0.8016      0.0000      0.0000
 Anlyt      0.0000      0.0000     -0.4210      0.0000      0.0000      0.0000
            0.0000      0.0000      0.0000      0.0000      0.0000      0.0000
            0.0000

     4     -2.6552      2.0015     -0.0656      0.0000      0.0000      0.0000
     Z      0.0000      0.0000      0.0000      0.2213      0.0000      0.0000
 Anlyt      0.0000      0.0000      0.2803      0.0000      0.0000      0.0000
            0.0000      0.0000      0.0000      0.0000      0.0000      0.0000
            0.0000

     5     -0.9213     -3.6436     -0.6690      0.0000      0.0000      0.0000
     X      0.0000      0.0000      0.0000      0.0620      0.0000      0.0000
 Anlyt      0.0000      0.0000      1.3457      0.0000      0.0000      0.0000
            0.0000      0.0000      0.0000      0.0000      0.0000      0.0000
            0.0000

     5     -2.0436     -1.1589     -0.0307      0.0000      0.0000      0.0000
     Y      0.0000      0.0000      0.0000     -0.5866      0.0000      0.0000
 Anlyt      0.0000      0.0000     -0.2286      0.0000      0.0000      0.0000
            0.0000      0.0000      0.0000      0.0000      0.0000      0.0000
            0.0000

     5      1.8442     -3.1044      0.0634      0.0000      0.0000      0.0000
     Z      0.0000      0.0000      0.0000     -0.6191      0.0000      0.0000
 Anlyt      0.0000      0.0000     -0.4435      0.0000      0.0000      0.0000
            0.0000      0.0000      0.0000      0.0000      0.0000      0.0000
            0.0000

     6      0.3741     -0.9543     -0.8347      0.0000      0.0000      0.0000
     X      0.0000      0.0000      0.0000      0.0001      0.0000      0.0000
 Anlyt      0.0000      0.0000      2.2796      0.0000      0.0000      0.0000
            0.0000      0.0000      0.0000      0.0000      0.0000      0.0000
            0.0000

     6     -0.7990     -0.4061      0.4478      0.0000      0.0000      0.0000
     Y      0.0000      0.0000      0.0000      0.0022      0.0000      0.0000
 Anlyt      0.0000      0.0000      0.1942      0.0000      0.0000      0.0000
            0.0000      0.0000      0.0000      0.0000      0.0000      0.0000
            0.0000

     6     -0.2199     -0.1480      0.1194      0.0000      0.0000      0.0000
     Z      0.0000      0.0000      0.0000     -0.0078      0.0000      0.0000
 Anlyt      0.0000      0.0000      0.0647      0.0000      0.0000      0.0000
            0.0000      0.0000      0.0000      0.0000      0.0000      0.0000
            0.0000

     7      7.4071      6.4742     -2.0136      0.0000      0.0000      0.0000
     X      0.0000      0.0000      0.0000      1.6282      0.0000      0.0000
 Anlyt      0.0000      0.0000     -2.2010      0.0000      0.0000      0.0000
            0.0000      0.0000      0.0000      0.0000      0.0000      0.0000
            0.0000

     7    -13.9210      9.5697      2.9416      0.0000      0.0000      0.0002
     Y      0.0000      0.0000      0.0000      0.8859      0.0000      0.0000
 Anlyt      0.0000      0.0000      0.5363      0.0000      0.0000      0.0000
            0.0000      0.0000      0.0000      0.0000      0.0000      0.0000
            0.0000

     7     -3.7538      2.6659      0.7913      0.0000      0.0000     -0.0006
     Z      0.0000      0.0000      0.0000      0.2902      0.0000      0.0000
 Anlyt      0.0000      0.0000      0.1362      0.0000      0.0000      0.0000
            0.0000      0.0000      0.0000      0.0000      0.0000      0.0000
            0.0000

     8     -1.3033     -3.3543      0.5570      0.0000      0.0000      0.0000
     X      0.0000      0.0000      0.0000     -0.6616      0.0000      0.0000
 Anlyt      0.0000      0.0000     -1.1996      0.0000      0.0000      0.0000
            0.0000      0.0000      0.0000      0.0000      0.0000      0.0000
            0.0000

     8     -3.1685     -1.7745     -0.1326      0.0000      0.0000      0.0000
     Y      0.0000      0.0000      0.0000     -0.2342      0.0000      0.0000
 Anlyt      0.0000      0.0000      1.1656      0.0000      0.0000      0.0000
            0.0000      0.0000      0.0000      0.0000      0.0000      0.0000
            0.0000

     8      2.7469     -3.6383     -0.5940      0.0000      0.0000      0.0000
     Z      0.0000      0.0000      0.0000     -0.5840      0.0000      0.0000
 Anlyt      0.0000      0.0000     -0.1618      0.0000      0.0000      0.0000
            0.0000      0.0000      0.0000      0.0000      0.0000      0.0000
            0.0000

     9     -1.2543     -3.3998      0.5478      0.0000      0.0000      0.0000
     X      0.0000      0.0000      0.0000     -0.6657      0.0000      0.0000
 Anlyt      0.0000      0.0000     -1.1948      0.0000      0.0000      0.0000
            0.0000      0.0000      0.0000      0.0000      0.0000      0.0000
            0.0000

     9     -1.3215     -3.3765     -0.4206      0.0000      0.0000      0.0000
     Y      0.0000      0.0000      0.0000     -0.4944      0.0000      0.0000
 Anlyt      0.0000      0.0000      0.9179      0.0000      0.0000      0.0000
            0.0000      0.0000      0.0000      0.0000      0.0000      0.0000
            0.0000

     9     -4.0086      2.1770      0.4480      0.0000      0.0000      0.0000
     Z      0.0000      0.0000      0.0000      0.3713      0.0000      0.0000
 Anlyt      0.0000      0.0000      0.7144      0.0000      0.0000      0.0000
            0.0000      0.0000      0.0000      0.0000      0.0000      0.0000
            0.0000

    10      5.6775      0.5238      2.3967      0.0000      0.0000      0.0000
     X      0.0000      0.0000      0.0000      0.0000      0.0000      0.0000
 Anlyt      0.0000      0.0000     -0.6487      0.0000      0.0000      0.0000
            0.0000      0.0000      0.0000      0.0000      0.0000      0.0000
            0.0000

    10      0.6346     -4.2846     -0.4137      0.0000      0.0000      0.0000
     Y      0.0000      0.0000      0.0000      0.0006      0.0000      0.0000
 Anlyt      0.0000      0.0000      1.1200      0.0000      0.0000      0.0000
            0.0000      0.0000      0.0000      0.0000      0.0000      0.0000
            0.0000

    10      0.2186     -1.1665     -0.0946      0.0000      0.0000      0.0000
     Z      0.0000      0.0000      0.0000     -0.0022      0.0000      0.0000
 Anlyt      0.0000      0.0000      0.3017      0.0000      0.0000      0.0000
            0.0000      0.0000      0.0000      0.0000      0.0000      0.0000
            0.0000

 Cartesian Gradient Breakdown over Individual Atoms :

  Type      Atom              dE/dX       dE/dY       dE/dZ          Norm

 Anlyt         1            16.9182     31.9898      8.7839       37.2388
 Anlyt         2           -15.7818    -17.8770     -4.9771       24.3603
 Anlyt         3            -1.6358      6.8301      2.0047        7.3037
 Anlyt         4            -3.8548     -4.5640     -0.2176        5.9780
 Anlyt         5            -3.8262     -4.0484     -2.2594        6.0112
 Anlyt         6             0.8648     -0.5609     -0.1916        1.0484
 Anlyt         7            11.2951      0.0127      0.1292       11.2958
 Anlyt         8            -5.9618     -4.1442     -2.2312        7.5958
 Anlyt         9            -5.9669     -4.6951     -0.2979        7.5985
 Anlyt        10             7.9493     -2.9430     -0.7430        8.5091

 Total Gradient Norm and RMS Gradient per Atom :

 Anlyt      Total Gradient Norm Value               49.2128

 Anlyt      RMS Gradient over All Atoms             15.5625
