
     ######################################################################
   ##########################################################################
  ###                                                                      ###
 ###            TINKER  ---  Software Tools for Molecular Design            ###
 ##                                                                          ##
 ##                        Version 7.1  February 2015                        ##
 ##                                                                          ##
 ##               Copyright (c)  Jay William Ponder  1990-2015               ##
 ###                           All Rights Reserved                          ###
  ###                                                                      ###
   ##########################################################################
     ######################################################################


 Total Potential Energy :                  5.1282 Kcal/mole

 Potential Energy Breakdown by Individual Components :

  Energy      EB          EA          EBA         EUB         EAA         EOPB
  Terms       EOPD        EID         EIT         ET          EPT         EBT
              EAT         ETT         EV          EC          ECD         ED
              EM          EP          ER          ES          ELF         EG
              EX

            1.1615      2.6983     -0.0383      0.0000      0.0000      0.0000
            0.0000      0.0000      0.0000     -0.1818      0.0000      0.0000
            0.0000      0.0000      1.4885      0.0000      0.0000      0.0000
            0.0000      0.0000      0.0000      0.0000      0.0000      0.0000
            0.0000

 Cartesian Gradient Breakdown by Individual Components :

  Atom      d EB        d EA        d EBA       d EUB       d EAA       d EOPB
  Axis      d EOPD      d EID       d EIT       d ET        d EPT       d EBT
  Type      d EAT       d ETT       d EV        d EC        d ECD       d ED
            d EM        d EP        d ER        d ES        d ELF       d EG
            d EX

     1     10.9142      6.5842     -2.0894      0.0000      0.0000     -0.0084
     X      0.0000      0.0000      0.0000     -0.1949      0.0000      0.0000
 Anlyt      0.0000      0.0000      0.0000      0.0000      0.0000      0.0000
            0.0000      0.0000      0.0000      0.0000      0.0000      0.0000
            0.0000

     1     37.3652     -0.0388     -0.4667      0.0000      0.0000      0.0225
     Y      0.0000      0.0000      0.0000     -0.5644      0.0000      0.0000
 Anlyt      0.0000      0.0000      0.0000      0.0000      0.0000      0.0000
            0.0000      0.0000      0.0000      0.0000      0.0000      0.0000
            0.0000

     1      6.0211     -0.7203      0.0500      0.0000      0.0000     -0.1243
     Z      0.0000      0.0000      0.0000      0.1748      0.0000      0.0000
 Anlyt      0.0000      0.0000      0.0000      0.0000      0.0000      0.0000
            0.0000      0.0000      0.0000      0.0000      0.0000      0.0000
            0.0000

     2     -5.9652     -8.6095     -2.2348      0.0000      0.0000      0.0034
     X      0.0000      0.0000      0.0000     -0.0035      0.0000      0.0000
 Anlyt      0.0000      0.0000     -2.1124      0.0000      0.0000      0.0000
            0.0000      0.0000      0.0000      0.0000      0.0000      0.0000
            0.0000

     2    -14.6688      3.3183     -4.8972      0.0000      0.0000     -0.0092
     Y      0.0000      0.0000      0.0000      0.0089      0.0000      0.0000
 Anlyt      0.0000      0.0000     -1.1406      0.0000      0.0000      0.0000
            0.0000      0.0000      0.0000      0.0000      0.0000      0.0000
            0.0000

     2     -2.2582      1.1875     -0.7373      0.0000      0.0000      0.0508
     Z      0.0000      0.0000      0.0000     -0.0485      0.0000      0.0000
 Anlyt      0.0000      0.0000     -0.1124      0.0000      0.0000      0.0000
            0.0000      0.0000      0.0000      0.0000      0.0000      0.0000
            0.0000

     3    -16.7795      8.5488      4.8487      0.0000      0.0000      0.0024
     X      0.0000      0.0000      0.0000     -0.3060      0.0000      0.0000
 Anlyt      0.0000      0.0000      2.7050      0.0000      0.0000      0.0000
            0.0000      0.0000      0.0000      0.0000      0.0000      0.0000
            0.0000

     3      0.8953      0.6998      3.0390      0.0000      0.0000     -0.0065
     Y      0.0000      0.0000      0.0000      1.7985      0.0000      0.0000
 Anlyt      0.0000      0.0000     -2.1763      0.0000      0.0000      0.0000
            0.0000      0.0000      0.0000      0.0000      0.0000      0.0000
            0.0000

     3      0.7092     -2.0932      0.5357      0.0000      0.0000      0.0359
     Z      0.0000      0.0000      0.0000     -0.2056      0.0000      0.0000
 Anlyt      0.0000      0.0000     -0.5122      0.0000      0.0000      0.0000
            0.0000      0.0000      0.0000      0.0000      0.0000      0.0000
            0.0000

     4     -0.8489     -3.8431     -0.7779      0.0000      0.0000      0.0000
     X      0.0000      0.0000      0.0000      0.1655      0.0000      0.0000
 Anlyt      0.0000      0.0000      1.7460      0.0000      0.0000      0.0000
            0.0000      0.0000      0.0000      0.0000      0.0000      0.0000
            0.0000

     4     -1.1625     -2.5682     -0.1428      0.0000      0.0000      0.0000
     Y      0.0000      0.0000      0.0000     -0.9028      0.0000      0.0000
 Anlyt      0.0000      0.0000     -0.3731      0.0000      0.0000      0.0000
            0.0000      0.0000      0.0000      0.0000      0.0000      0.0000
            0.0000

     4     -2.1920      2.8504     -0.1861      0.0000      0.0000      0.0000
     Z      0.0000      0.0000      0.0000      0.4147      0.0000      0.0000
 Anlyt      0.0000      0.0000      0.2490      0.0000      0.0000      0.0000
            0.0000      0.0000      0.0000      0.0000      0.0000      0.0000
            0.0000

     5     -0.6710     -3.4469     -0.6815      0.0000      0.0000      0.0000
     X      0.0000      0.0000      0.0000      0.0700      0.0000      0.0000
 Anlyt      0.0000      0.0000      1.3662      0.0000      0.0000      0.0000
            0.0000      0.0000      0.0000      0.0000      0.0000      0.0000
            0.0000

     5     -1.8428     -1.7394     -0.0029      0.0000      0.0000      0.0000
     Y      0.0000      0.0000      0.0000     -0.5127      0.0000      0.0000
 Anlyt      0.0000      0.0000     -0.2180      0.0000      0.0000      0.0000
            0.0000      0.0000      0.0000      0.0000      0.0000      0.0000
            0.0000

     5      2.2844     -2.4156     -0.0052      0.0000      0.0000      0.0000
     Z      0.0000      0.0000      0.0000     -0.3930      0.0000      0.0000
 Anlyt      0.0000      0.0000     -0.5299      0.0000      0.0000      0.0000
            0.0000      0.0000      0.0000      0.0000      0.0000      0.0000
            0.0000

     6      0.4645     -0.6429     -0.8677      0.0000      0.0000      0.0000
     X      0.0000      0.0000      0.0000      0.0075      0.0000      0.0000
 Anlyt      0.0000      0.0000      2.3581      0.0000      0.0000      0.0000
            0.0000      0.0000      0.0000      0.0000      0.0000      0.0000
            0.0000

     6     -0.8471     -0.4048      0.2915      0.0000      0.0000      0.0000
     Y      0.0000      0.0000      0.0000     -0.0150      0.0000      0.0000
 Anlyt      0.0000      0.0000      0.4026      0.0000      0.0000      0.0000
            0.0000      0.0000      0.0000      0.0000      0.0000      0.0000
            0.0000

     6     -0.1228      0.3604      0.0746      0.0000      0.0000      0.0000
     Z      0.0000      0.0000      0.0000      0.1322      0.0000      0.0000
 Anlyt      0.0000      0.0000     -0.0205      0.0000      0.0000      0.0000
            0.0000      0.0000      0.0000      0.0000      0.0000      0.0000
            0.0000

     7      2.0477     10.6113     -3.3661      0.0000      0.0000      0.0025
     X      0.0000      0.0000      0.0000      1.5880      0.0000      0.0000
 Anlyt      0.0000      0.0000     -2.4137      0.0000      0.0000      0.0000
            0.0000      0.0000      0.0000      0.0000      0.0000      0.0000
            0.0000

     7    -15.2572     15.6609      2.1924      0.0000      0.0000     -0.0068
     Y      0.0000      0.0000      0.0000      0.9769      0.0000      0.0000
 Anlyt      0.0000      0.0000      0.4192      0.0000      0.0000      0.0000
            0.0000      0.0000      0.0000      0.0000      0.0000      0.0000
            0.0000

     7     -3.0407      3.8976      0.3223      0.0000      0.0000      0.0376
     Z      0.0000      0.0000      0.0000      0.2653      0.0000      0.0000
 Anlyt      0.0000      0.0000      0.1764      0.0000      0.0000      0.0000
            0.0000      0.0000      0.0000      0.0000      0.0000      0.0000
            0.0000

     8     -1.4752     -5.0312      0.7531      0.0000      0.0000      0.0000
     X      0.0000      0.0000      0.0000     -0.7457      0.0000      0.0000
 Anlyt      0.0000      0.0000     -1.7753      0.0000      0.0000      0.0000
            0.0000      0.0000      0.0000      0.0000      0.0000      0.0000
            0.0000

     8     -3.5845     -1.1585      0.5030      0.0000      0.0000      0.0000
     Y      0.0000      0.0000      0.0000     -0.3385      0.0000      0.0000
 Anlyt      0.0000      0.0000      1.4861      0.0000      0.0000      0.0000
            0.0000      0.0000      0.0000      0.0000      0.0000      0.0000
            0.0000

     8      3.5107     -3.2969     -1.3082      0.0000      0.0000      0.0000
     Z      0.0000      0.0000      0.0000     -0.6590      0.0000      0.0000
 Anlyt      0.0000      0.0000     -0.2350      0.0000      0.0000      0.0000
            0.0000      0.0000      0.0000      0.0000      0.0000      0.0000
            0.0000

     9     -1.7555     -5.0061      0.8553      0.0000      0.0000      0.0000
     X      0.0000      0.0000      0.0000     -0.5783      0.0000      0.0000
 Anlyt      0.0000      0.0000     -1.5431      0.0000      0.0000      0.0000
            0.0000      0.0000      0.0000      0.0000      0.0000      0.0000
            0.0000

     9     -1.9482     -2.1546     -0.0270      0.0000      0.0000      0.0000
     Y      0.0000      0.0000      0.0000     -0.4692      0.0000      0.0000
 Anlyt      0.0000      0.0000      1.0553      0.0000      0.0000      0.0000
            0.0000      0.0000      0.0000      0.0000      0.0000      0.0000
            0.0000

     9     -4.7330      2.7436      1.4501      0.0000      0.0000      0.0000
     Z      0.0000      0.0000      0.0000      0.4076      0.0000      0.0000
 Anlyt      0.0000      0.0000      0.8743      0.0000      0.0000      0.0000
            0.0000      0.0000      0.0000      0.0000      0.0000      0.0000
            0.0000

    10     14.0688      0.8353      3.5602      0.0000      0.0000      0.0000
     X      0.0000      0.0000      0.0000     -0.0025      0.0000      0.0000
 Anlyt      0.0000      0.0000     -0.3307      0.0000      0.0000      0.0000
            0.0000      0.0000      0.0000      0.0000      0.0000      0.0000
            0.0000

    10      1.0505    -11.6148     -0.4893      0.0000      0.0000      0.0000
     Y      0.0000      0.0000      0.0000      0.0183      0.0000      0.0000
 Anlyt      0.0000      0.0000      0.5447      0.0000      0.0000      0.0000
            0.0000      0.0000      0.0000      0.0000      0.0000      0.0000
            0.0000

    10     -0.1789     -2.5135     -0.1959      0.0000      0.0000      0.0000
     Z      0.0000      0.0000      0.0000     -0.0885      0.0000      0.0000
 Anlyt      0.0000      0.0000      0.1103      0.0000      0.0000      0.0000
            0.0000      0.0000      0.0000      0.0000      0.0000      0.0000
            0.0000

 Cartesian Gradient Breakdown over Individual Atoms :

  Type      Atom              dE/dX       dE/dY       dE/dZ          Norm

 Anlyt         1            15.2057     36.3178      5.4013       39.7413
 Anlyt         2           -18.9220    -17.3886     -1.9181       25.7698
 Anlyt         3            -0.9806      4.2498     -1.5302        4.6221
 Anlyt         4            -3.5584     -5.1493      1.1360        6.3615
 Anlyt         5            -3.3632     -4.3157     -1.0592        5.5730
 Anlyt         6             1.3195     -0.5728      0.4239        1.4996
 Anlyt         7             8.4698      3.9855      1.6585        9.5065
 Anlyt         8            -8.2744     -3.0924     -1.9883        9.0544
 Anlyt         9            -8.0276     -3.5437      0.7427        8.8063
 Anlyt        10            18.1311    -10.4906     -2.8665       21.1425

 Total Gradient Norm and RMS Gradient per Atom :

 Anlyt      Total Gradient Norm Value               55.0954

 Anlyt      RMS Gradient over All Atoms             17.4227
