
     ######################################################################
   ##########################################################################
  ###                                                                      ###
 ###            TINKER  ---  Software Tools for Molecular Design            ###
 ##                                                                          ##
 ##                        Version 7.1  February 2015                        ##
 ##                                                                          ##
 ##               Copyright (c)  Jay William Ponder  1990-2015               ##
 ###                           All Rights Reserved                          ###
  ###                                                                      ###
   ##########################################################################
     ######################################################################


 Total Potential Energy :                  8.5188 Kcal/mole

 Potential Energy Breakdown by Individual Components :

  Energy      EB          EA          EBA         EUB         EAA         EOPB
  Terms       EOPD        EID         EIT         ET          EPT         EBT
              EAT         ETT         EV          EC          ECD         ED
              EM          EP          ER          ES          ELF         EG
              EX

            1.4377      5.6101      0.2729      0.0000      0.0000      0.0000
            0.0000      0.0000      0.0000      0.0000      0.0000      0.0000
            0.0000      0.0000      0.0451      1.1531      0.0000      0.0000
            0.0000      0.0000      0.0000      0.0000      0.0000      0.0000
            0.0000

 Cartesian Gradient Breakdown by Individual Components :

  Atom      d EB        d EA        d EBA       d EUB       d EAA       d EOPB
  Axis      d EOPD      d EID       d EIT       d ET        d EPT       d EBT
  Type      d EAT       d ETT       d EV        d EC        d ECD       d ED
            d EM        d EP        d ER        d ES        d ELF       d EG
            d EX

     1     10.3603     26.4149    -10.2027      0.0000      0.0000      0.0000
     X      0.0000      0.0000      0.0000      0.0000      0.0000      0.0000
 Anlyt      0.0000      0.0000      0.3085      0.0664      0.0000      0.0000
            0.0000      0.0000      0.0000      0.0000      0.0000      0.0000
            0.0000

     1      0.9827    -18.0110      0.5269      0.0000      0.0000      0.0000
     Y      0.0000      0.0000      0.0000      0.0000      0.0000      0.0000
 Anlyt      0.0000      0.0000      0.5647      0.0992      0.0000      0.0000
            0.0000      0.0000      0.0000      0.0000      0.0000      0.0000
            0.0000

     1     -0.0005     -0.0006      0.0003      0.0000      0.0000      0.0018
     Z      0.0000      0.0000      0.0000      0.0021      0.0000      0.0000
 Anlyt      0.0000      0.0000     -0.0000     -0.0000      0.0000      0.0000
            0.0000      0.0000      0.0000      0.0000      0.0000      0.0000
            0.0000

     2    -24.3869      2.4269     11.3765      0.0000      0.0000     -0.0000
     X      0.0000      0.0000      0.0000      0.0000      0.0000      0.0000
 Anlyt      0.0000      0.0000     -0.0624      0.1261      0.0000      0.0000
            0.0000      0.0000      0.0000      0.0000      0.0000      0.0000
            0.0000

     2    -37.0412     10.3918     -7.0933      0.0000      0.0000     -0.0000
     Y      0.0000      0.0000      0.0000     -0.0000      0.0000      0.0000
 Anlyt      0.0000      0.0000      0.2385     -0.4821      0.0000      0.0000
            0.0000      0.0000      0.0000      0.0000      0.0000      0.0000
            0.0000

     2      0.0011      0.0021     -0.0000      0.0000      0.0000     -0.0038
     Z      0.0000      0.0000      0.0000     -0.0049      0.0000      0.0000
 Anlyt      0.0000      0.0000     -0.0000      0.0000      0.0000      0.0000
            0.0000      0.0000      0.0000      0.0000      0.0000      0.0000
            0.0000

     3      5.8013     -8.2953     13.1372      0.0000      0.0000     -0.0000
     X      0.0000      0.0000      0.0000     -0.0000      0.0000      0.0000
 Anlyt      0.0000      0.0000     -0.1922      0.3901      0.0000      0.0000
            0.0000      0.0000      0.0000      0.0000      0.0000      0.0000
            0.0000

     3     41.6398    -10.7550     -0.0985      0.0000      0.0000      0.0000
     Y      0.0000      0.0000      0.0000      0.0000      0.0000      0.0000
 Anlyt      0.0000      0.0000     -0.1527      0.3098      0.0000      0.0000
            0.0000      0.0000      0.0000      0.0000      0.0000      0.0000
            0.0000

     3     -0.0014     -0.0027      0.0007      0.0000      0.0000      0.0049
     Z      0.0000      0.0000      0.0000      0.0056      0.0000      0.0000
 Anlyt      0.0000      0.0000      0.0000     -0.0000      0.0000      0.0000
            0.0000      0.0000      0.0000      0.0000      0.0000      0.0000
            0.0000

     4      6.0628     29.4702     -8.2233      0.0000      0.0000      0.0000
     X      0.0000      0.0000      0.0000      0.0000      0.0000      0.0000
 Anlyt      0.0000      0.0000     -0.0930     -0.0063      0.0000      0.0000
            0.0000      0.0000      0.0000      0.0000      0.0000      0.0000
            0.0000

     4      6.6838      2.9148      4.9079      0.0000      0.0000     -0.0000
     Y      0.0000      0.0000      0.0000     -0.0000      0.0000      0.0000
 Anlyt      0.0000      0.0000     -0.6156     -0.1186      0.0000      0.0000
            0.0000      0.0000      0.0000      0.0000      0.0000      0.0000
            0.0000

     4     -0.0004      0.0025     -0.0008      0.0000      0.0000     -0.0040
     Z      0.0000      0.0000      0.0000     -0.0050      0.0000      0.0000
 Anlyt      0.0000      0.0000      0.0001      0.0000      0.0000      0.0000
            0.0000      0.0000      0.0000      0.0000      0.0000      0.0000
            0.0000

     5      0.4100    -12.1045     -1.5664      0.0000      0.0000     -0.0000
     X      0.0000      0.0000      0.0000      0.0000      0.0000      0.0000
 Anlyt      0.0000      0.0000      0.4616      0.8121      0.0000      0.0000
            0.0000      0.0000      0.0000      0.0000      0.0000      0.0000
            0.0000

     5      0.3935     12.6107     -2.0364      0.0000      0.0000     -0.0000
     Y      0.0000      0.0000      0.0000      0.0000      0.0000      0.0000
 Anlyt      0.0000      0.0000      0.5129      0.3249      0.0000      0.0000
            0.0000      0.0000      0.0000      0.0000      0.0000      0.0000
            0.0000

     5     -0.0000     -0.0006      0.0002      0.0000      0.0000     -0.0004
     Z      0.0000      0.0000      0.0000      0.0004      0.0000      0.0000
 Anlyt      0.0000      0.0000     -0.0000     -0.0001      0.0000      0.0000
            0.0000      0.0000      0.0000      0.0000      0.0000      0.0000
            0.0000

     6      0.4276     -0.7901     -2.8052      0.0000      0.0000      0.0000
     X      0.0000      0.0000      0.0000      0.0000      0.0000      0.0000
 Anlyt      0.0000      0.0000     -0.1500      0.1940      0.0000      0.0000
            0.0000      0.0000      0.0000      0.0000      0.0000      0.0000
            0.0000

     6     -0.6255     -0.5401     -0.2252      0.0000      0.0000      0.0000
     Y      0.0000      0.0000      0.0000     -0.0000      0.0000      0.0000
 Anlyt      0.0000      0.0000      0.3258      0.3811      0.0000      0.0000
            0.0000      0.0000      0.0000      0.0000      0.0000      0.0000
            0.0000

     6      0.0000      0.0001     -0.0000      0.0000      0.0000      0.0011
     Z      0.0000      0.0000      0.0000     -0.0008      0.0000      0.0000
 Anlyt      0.0000      0.0000     -0.0000      0.0000      0.0000      0.0000
            0.0000      0.0000      0.0000      0.0000      0.0000      0.0000
            0.0000

     7      1.1465     -0.2214     -2.3687      0.0000      0.0000      0.0000
     X      0.0000      0.0000      0.0000     -0.0000      0.0000      0.0000
 Anlyt      0.0000      0.0000     -0.3331     -0.0756      0.0000      0.0000
            0.0000      0.0000      0.0000      0.0000      0.0000      0.0000
            0.0000

     7      0.3893      0.6521      1.5886      0.0000      0.0000     -0.0000
     Y      0.0000      0.0000      0.0000      0.0000      0.0000      0.0000
 Anlyt      0.0000      0.0000     -0.1752     -0.4163      0.0000      0.0000
            0.0000      0.0000      0.0000      0.0000      0.0000      0.0000
            0.0000

     7      0.0000     -0.0002     -0.0001      0.0000      0.0000     -0.0014
     Z      0.0000      0.0000      0.0000      0.0011      0.0000      0.0000
 Anlyt      0.0000      0.0000     -0.0000     -0.0000      0.0000      0.0000
            0.0000      0.0000      0.0000      0.0000      0.0000      0.0000
            0.0000

     8     -1.2527    -21.7839      0.3877      0.0000      0.0000     -0.0000
     X      0.0000      0.0000      0.0000     -0.0000      0.0000      0.0000
 Anlyt      0.0000      0.0000     -0.0054     -1.9639      0.0000      0.0000
            0.0000      0.0000      0.0000      0.0000      0.0000      0.0000
            0.0000

     8     -3.1498      5.0699     -0.1930      0.0000      0.0000      0.0000
     Y      0.0000      0.0000      0.0000      0.0000      0.0000      0.0000
 Anlyt      0.0000      0.0000      0.0018      0.6520      0.0000      0.0000
            0.0000      0.0000      0.0000      0.0000      0.0000      0.0000
            0.0000

     8      0.0003     -0.0008      0.0000      0.0000      0.0000      0.0005
     Z      0.0000      0.0000      0.0000      0.0022      0.0000      0.0000
 Anlyt      0.0000      0.0000     -0.0000     -0.0000      0.0000      0.0000
            0.0000      0.0000      0.0000      0.0000      0.0000      0.0000
            0.0000

     9      1.4312    -15.1167      0.2649      0.0000      0.0000     -0.0000
     X      0.0000      0.0000      0.0000      0.0000      0.0000      0.0000
 Anlyt      0.0000      0.0000      0.0660      0.4571      0.0000      0.0000
            0.0000      0.0000      0.0000      0.0000      0.0000      0.0000
            0.0000

     9     -9.2727     -2.3332      2.6231      0.0000      0.0000      0.0000
     Y      0.0000      0.0000      0.0000     -0.0000      0.0000      0.0000
 Anlyt      0.0000      0.0000     -0.7004     -0.7499      0.0000      0.0000
            0.0000      0.0000      0.0000      0.0000      0.0000      0.0000
            0.0000

     9      0.0009      0.0001     -0.0002      0.0000      0.0000      0.0013
     Z      0.0000      0.0000      0.0000     -0.0007      0.0000      0.0000
 Anlyt      0.0000      0.0000      0.0001      0.0001      0.0000      0.0000
            0.0000      0.0000      0.0000      0.0000      0.0000      0.0000
            0.0000

 Cartesian Gradient Breakdown over Individual Atoms :

  Type      Atom              dE/dX       dE/dY       dE/dZ          Norm

 Anlyt         1            26.9474    -15.8375      0.0030       31.2568
 Anlyt         2           -10.5199    -33.9864     -0.0055       35.5773
 Anlyt         3            10.8410     30.9434      0.0071       32.7876
 Anlyt         4            27.2104     13.7724     -0.0077       30.4973
 Anlyt         5           -11.9872     11.8056     -0.0006       16.8246
 Anlyt         6            -3.1236     -0.6839      0.0005        3.1976
 Anlyt         7            -1.8523      2.0386     -0.0006        2.7545
 Anlyt         8           -24.6182      2.3808      0.0022       24.7331
 Anlyt         9           -12.8974    -10.4331      0.0016       16.5889

 Total Gradient Norm and RMS Gradient per Atom :

 Anlyt      Total Gradient Norm Value               73.7268

 Anlyt      RMS Gradient over All Atoms             24.5756
