
     ######################################################################
   ##########################################################################
  ###                                                                      ###
 ###            TINKER  ---  Software Tools for Molecular Design            ###
 ##                                                                          ##
 ##                        Version 7.1  February 2015                        ##
 ##                                                                          ##
 ##               Copyright (c)  Jay William Ponder  1990-2015               ##
 ###                           All Rights Reserved                          ###
  ###                                                                      ###
   ##########################################################################
     ######################################################################


 Total Potential Energy :                  8.8032 Kcal/mole

 Potential Energy Breakdown by Individual Components :

  Energy      EB          EA          EBA         EUB         EAA         EOPB
  Terms       EOPD        EID         EIT         ET          EPT         EBT
              EAT         ETT         EV          EC          ECD         ED
              EM          EP          ER          ES          ELF         EG
              EX

            1.3554      5.9937      0.2801      0.0000      0.0000      0.0000
            0.0000      0.0000      0.0000      0.0000      0.0000      0.0000
            0.0000      0.0000      0.0372      1.1368      0.0000      0.0000
            0.0000      0.0000      0.0000      0.0000      0.0000      0.0000
            0.0000

 Cartesian Gradient Breakdown by Individual Components :

  Atom      d EB        d EA        d EBA       d EUB       d EAA       d EOPB
  Axis      d EOPD      d EID       d EIT       d ET        d EPT       d EBT
  Type      d EAT       d ETT       d EV        d EC        d ECD       d ED
            d EM        d EP        d ER        d ES        d ELF       d EG
            d EX

     1     10.1978     25.0604    -10.1675      0.0000      0.0000      0.0000
     X      0.0000      0.0000      0.0000      0.0000      0.0000      0.0000
 Anlyt      0.0000      0.0000      0.3265      0.0695      0.0000      0.0000
            0.0000      0.0000      0.0000      0.0000      0.0000      0.0000
            0.0000

     1      1.9027    -19.0941      0.6706      0.0000      0.0000      0.0000
     Y      0.0000      0.0000      0.0000      0.0000      0.0000      0.0000
 Anlyt      0.0000      0.0000      0.5473      0.0966      0.0000      0.0000
            0.0000      0.0000      0.0000      0.0000      0.0000      0.0000
            0.0000

     1     -0.0006      0.0006      0.0003      0.0000      0.0000      0.0012
     Z      0.0000      0.0000      0.0000      0.0015      0.0000      0.0000
 Anlyt      0.0000      0.0000     -0.0001     -0.0000      0.0000      0.0000
            0.0000      0.0000      0.0000      0.0000      0.0000      0.0000
            0.0000

     2    -25.6709      3.1442     11.2851      0.0000      0.0000     -0.0000
     X      0.0000      0.0000      0.0000     -0.0000      0.0000      0.0000
 Anlyt      0.0000      0.0000     -0.0518      0.1111      0.0000      0.0000
            0.0000      0.0000      0.0000      0.0000      0.0000      0.0000
            0.0000

     2    -35.7119      9.9568     -7.3070      0.0000      0.0000     -0.0000
     Y      0.0000      0.0000      0.0000     -0.0000      0.0000      0.0000
 Anlyt      0.0000      0.0000      0.2243     -0.4817      0.0000      0.0000
            0.0000      0.0000      0.0000      0.0000      0.0000      0.0000
            0.0000

     2      0.0033      0.0001      0.0003      0.0000      0.0000     -0.0015
     Z      0.0000      0.0000      0.0000     -0.0017      0.0000      0.0000
 Anlyt      0.0000      0.0000     -0.0000      0.0000      0.0000      0.0000
            0.0000      0.0000      0.0000      0.0000      0.0000      0.0000
            0.0000

     3      8.4507    -10.8029     13.6867      0.0000      0.0000      0.0000
     X      0.0000      0.0000      0.0000      0.0000      0.0000      0.0000
 Anlyt      0.0000      0.0000     -0.1982      0.4010      0.0000      0.0000
            0.0000      0.0000      0.0000      0.0000      0.0000      0.0000
            0.0000

     3     39.9232    -10.9929     -1.3257      0.0000      0.0000      0.0000
     Y      0.0000      0.0000      0.0000      0.0000      0.0000      0.0000
 Anlyt      0.0000      0.0000     -0.1462      0.2958      0.0000      0.0000
            0.0000      0.0000      0.0000      0.0000      0.0000      0.0000
            0.0000

     3     -0.0033      0.0003      0.0001      0.0000      0.0000      0.0012
     Z      0.0000      0.0000      0.0000      0.0014      0.0000      0.0000
 Anlyt      0.0000      0.0000      0.0000     -0.0000      0.0000      0.0000
            0.0000      0.0000      0.0000      0.0000      0.0000      0.0000
            0.0000

     4      7.2407     34.1097     -9.1211      0.0000      0.0000     -0.0000
     X      0.0000      0.0000      0.0000      0.0000      0.0000      0.0000
 Anlyt      0.0000      0.0000     -0.1125     -0.0104      0.0000      0.0000
            0.0000      0.0000      0.0000      0.0000      0.0000      0.0000
            0.0000

     4      1.8014      4.3337      4.7192      0.0000      0.0000     -0.0000
     Y      0.0000      0.0000      0.0000     -0.0000      0.0000      0.0000
 Anlyt      0.0000      0.0000     -0.6030     -0.1181      0.0000      0.0000
            0.0000      0.0000      0.0000      0.0000      0.0000      0.0000
            0.0000

     4     -0.0002     -0.0003     -0.0004      0.0000      0.0000     -0.0004
     Z      0.0000      0.0000      0.0000     -0.0003      0.0000      0.0000
 Anlyt      0.0000      0.0000      0.0001      0.0000      0.0000      0.0000
            0.0000      0.0000      0.0000      0.0000      0.0000      0.0000
            0.0000

     5      0.4011    -11.6109     -1.6784      0.0000      0.0000     -0.0000
     X      0.0000      0.0000      0.0000      0.0000      0.0000      0.0000
 Anlyt      0.0000      0.0000      0.4759      0.8205      0.0000      0.0000
            0.0000      0.0000      0.0000      0.0000      0.0000      0.0000
            0.0000

     5      0.3587     12.9836     -1.9440      0.0000      0.0000     -0.0000
     Y      0.0000      0.0000      0.0000      0.0000      0.0000      0.0000
 Anlyt      0.0000      0.0000      0.4911      0.2967      0.0000      0.0000
            0.0000      0.0000      0.0000      0.0000      0.0000      0.0000
            0.0000

     5     -0.0000     -0.0010      0.0002      0.0000      0.0000     -0.0004
     Z      0.0000      0.0000      0.0000      0.0002      0.0000      0.0000
 Anlyt      0.0000      0.0000     -0.0001     -0.0001      0.0000      0.0000
            0.0000      0.0000      0.0000      0.0000      0.0000      0.0000
            0.0000

     6      0.3955     -0.5881     -2.7976      0.0000      0.0000      0.0000
     X      0.0000      0.0000      0.0000     -0.0000      0.0000      0.0000
 Anlyt      0.0000      0.0000     -0.1340      0.2108      0.0000      0.0000
            0.0000      0.0000      0.0000      0.0000      0.0000      0.0000
            0.0000

     6     -0.6226     -0.3736     -0.1101      0.0000      0.0000      0.0000
     Y      0.0000      0.0000      0.0000     -0.0000      0.0000      0.0000
 Anlyt      0.0000      0.0000      0.3346      0.3742      0.0000      0.0000
            0.0000      0.0000      0.0000      0.0000      0.0000      0.0000
            0.0000

     6      0.0000      0.0001      0.0000      0.0000      0.0000      0.0004
     Z      0.0000      0.0000      0.0000     -0.0004      0.0000      0.0000
 Anlyt      0.0000      0.0000     -0.0000     -0.0000      0.0000      0.0000
            0.0000      0.0000      0.0000      0.0000      0.0000      0.0000
            0.0000

     7      1.2206      0.0716     -2.3751      0.0000      0.0000     -0.0000
     X      0.0000      0.0000      0.0000      0.0000      0.0000      0.0000
 Anlyt      0.0000      0.0000     -0.3272     -0.0812      0.0000      0.0000
            0.0000      0.0000      0.0000      0.0000      0.0000      0.0000
            0.0000

     7      0.3564     -0.2453      1.5653      0.0000      0.0000     -0.0000
     Y      0.0000      0.0000      0.0000      0.0000      0.0000      0.0000
 Anlyt      0.0000      0.0000     -0.1826     -0.4287      0.0000      0.0000
            0.0000      0.0000      0.0000      0.0000      0.0000      0.0000
            0.0000

     7     -0.0000     -0.0000     -0.0001      0.0000      0.0000     -0.0004
     Z      0.0000      0.0000      0.0000      0.0004      0.0000      0.0000
 Anlyt      0.0000      0.0000      0.0000      0.0000      0.0000      0.0000
            0.0000      0.0000      0.0000      0.0000      0.0000      0.0000
            0.0000

     8     -2.5943    -20.9645      1.1476      0.0000      0.0000     -0.0000
     X      0.0000      0.0000      0.0000     -0.0000      0.0000      0.0000
 Anlyt      0.0000      0.0000     -0.0052     -1.9405      0.0000      0.0000
            0.0000      0.0000      0.0000      0.0000      0.0000      0.0000
            0.0000

     8     -5.4542      6.0192      0.4207      0.0000      0.0000     -0.0000
     Y      0.0000      0.0000      0.0000     -0.0000      0.0000      0.0000
 Anlyt      0.0000      0.0000      0.0017      0.7240      0.0000      0.0000
            0.0000      0.0000      0.0000      0.0000      0.0000      0.0000
            0.0000

     8      0.0006     -0.0001     -0.0001      0.0000      0.0000     -0.0002
     Z      0.0000      0.0000      0.0000     -0.0005      0.0000      0.0000
 Anlyt      0.0000      0.0000     -0.0000     -0.0000      0.0000      0.0000
            0.0000      0.0000      0.0000      0.0000      0.0000      0.0000
            0.0000

     9      0.3587    -18.4195      0.0203      0.0000      0.0000      0.0000
     X      0.0000      0.0000      0.0000     -0.0000      0.0000      0.0000
 Anlyt      0.0000      0.0000      0.0265      0.4193      0.0000      0.0000
            0.0000      0.0000      0.0000      0.0000      0.0000      0.0000
            0.0000

     9     -2.5537     -2.5875      3.3111      0.0000      0.0000      0.0000
     Y      0.0000      0.0000      0.0000     -0.0000      0.0000      0.0000
 Anlyt      0.0000      0.0000     -0.6672     -0.7589      0.0000      0.0000
            0.0000      0.0000      0.0000      0.0000      0.0000      0.0000
            0.0000

     9      0.0003      0.0004     -0.0003      0.0000      0.0000      0.0001
     Z      0.0000      0.0000      0.0000     -0.0005      0.0000      0.0000
 Anlyt      0.0000      0.0000      0.0001      0.0001      0.0000      0.0000
            0.0000      0.0000      0.0000      0.0000      0.0000      0.0000
            0.0000

 Cartesian Gradient Breakdown over Individual Atoms :

  Type      Atom              dE/dX       dE/dY       dE/dZ          Norm

 Anlyt         1            25.4866    -15.8769      0.0029       30.0274
 Anlyt         2           -11.1822    -33.3195      0.0005       35.1458
 Anlyt         3            11.5373     27.7542     -0.0004       30.0567
 Anlyt         4            32.1063     10.1332     -0.0016       33.6675
 Anlyt         5           -11.5918     12.1862     -0.0012       16.8188
 Anlyt         6            -2.9134     -0.3976      0.0001        2.9404
 Anlyt         7            -1.4913      1.0651     -0.0001        1.8326
 Anlyt         8           -24.3569      1.7115     -0.0003       24.4169
 Anlyt         9           -17.5947     -3.2562      0.0001       17.8935

 Total Gradient Norm and RMS Gradient per Atom :

 Anlyt      Total Gradient Norm Value               73.3827

 Anlyt      RMS Gradient over All Atoms             24.4609
