
     ######################################################################
   ##########################################################################
  ###                                                                      ###
 ###            TINKER  ---  Software Tools for Molecular Design            ###
 ##                                                                          ##
 ##                        Version 7.1  February 2015                        ##
 ##                                                                          ##
 ##               Copyright (c)  Jay William Ponder  1990-2015               ##
 ###                           All Rights Reserved                          ###
  ###                                                                      ###
   ##########################################################################
     ######################################################################


 Total Potential Energy :                 15.7531 Kcal/mole

 Potential Energy Breakdown by Individual Components :

  Energy      EB          EA          EBA         EUB         EAA         EOPB
  Terms       EOPD        EID         EIT         ET          EPT         EBT
              EAT         ETT         EV          EC          ECD         ED
              EM          EP          ER          ES          ELF         EG
              EX

            0.5168      4.2728     -0.1114      0.0000      0.0000      0.0000
            0.0000      0.0000      0.0000      3.4753      0.0000      0.0000
            0.0000      0.0000      5.3277      2.2720      0.0000      0.0000
            0.0000      0.0000      0.0000      0.0000      0.0000      0.0000
            0.0000

 Cartesian Gradient Breakdown by Individual Components :

  Atom      d EB        d EA        d EBA       d EUB       d EAA       d EOPB
  Axis      d EOPD      d EID       d EIT       d ET        d EPT       d EBT
  Type      d EAT       d ETT       d EV        d EC        d ECD       d ED
            d EM        d EP        d ER        d ES        d ELF       d EG
            d EX

     1     23.4015      6.2054     -8.8377      0.0000      0.0000     -0.0000
     X      0.0000      0.0000      0.0000      0.1672      0.0000      0.0000
 Anlyt      0.0000      0.0000     -0.6714      0.0000      0.0000      0.0000
            0.0000      0.0000      0.0000      0.0000      0.0000      0.0000
            0.0000

     1     24.0461      8.4986    -17.4765      0.0000      0.0000     -0.0037
     Y      0.0000      0.0000      0.0000     -0.1020      0.0000      0.0000
 Anlyt      0.0000      0.0000      4.1709      0.0000      0.0000      0.0000
            0.0000      0.0000      0.0000      0.0000      0.0000      0.0000
            0.0000

     1      3.4098      1.0373     -2.4632      0.0000      0.0000      0.0261
     Z      0.0000      0.0000      0.0000      0.0250      0.0000      0.0000
 Anlyt      0.0000      0.0000      0.5004      0.0000      0.0000      0.0000
            0.0000      0.0000      0.0000      0.0000      0.0000      0.0000
            0.0000

     2    -13.2805     15.0943     -4.3890      0.0000      0.0000      0.0000
     X      0.0000      0.0000      0.0000      0.0327      0.0000      0.0000
 Anlyt      0.0000      0.0000      6.4452      0.2646      0.0000      0.0000
            0.0000      0.0000      0.0000      0.0000      0.0000      0.0000
            0.0000

     2     -2.2808    -15.1754      2.1089      0.0000      0.0000      0.0012
     Y      0.0000      0.0000      0.0000      0.8534      0.0000      0.0000
 Anlyt      0.0000      0.0000      6.0124      0.3529      0.0000      0.0000
            0.0000      0.0000      0.0000      0.0000      0.0000      0.0000
            0.0000

     2      0.0873     -1.5660      0.1720      0.0000      0.0000     -0.0083
     Z      0.0000      0.0000      0.0000      0.0886      0.0000      0.0000
 Anlyt      0.0000      0.0000      0.6410      0.0503      0.0000      0.0000
            0.0000      0.0000      0.0000      0.0000      0.0000      0.0000
            0.0000

     3     -1.1259     -5.0650     -0.4555      0.0000      0.0000      0.0000
     X      0.0000      0.0000      0.0000     -0.0112      0.0000      0.0000
 Anlyt      0.0000      0.0000      2.1272      0.0000      0.0000      0.0000
            0.0000      0.0000      0.0000      0.0000      0.0000      0.0000
            0.0000

     3      1.8921      0.2244     -0.2199      0.0000      0.0000      0.0000
     Y      0.0000      0.0000      0.0000     -0.2700      0.0000      0.0000
 Anlyt      0.0000      0.0000      1.3794      0.0000      0.0000      0.0000
            0.0000      0.0000      0.0000      0.0000      0.0000      0.0000
            0.0000

     3     -2.4959      2.4549      0.2335      0.0000      0.0000      0.0000
     Z      0.0000      0.0000      0.0000     -0.1997      0.0000      0.0000
 Anlyt      0.0000      0.0000      0.8342      0.0000      0.0000      0.0000
            0.0000      0.0000      0.0000      0.0000      0.0000      0.0000
            0.0000

     4     -0.1086     -5.4014     -0.7088      0.0000      0.0000      0.0000
     X      0.0000      0.0000      0.0000     -0.0000      0.0000      0.0000
 Anlyt      0.0000      0.0000      3.1501      0.0000      0.0000      0.0000
            0.0000      0.0000      0.0000      0.0000      0.0000      0.0000
            0.0000

     4     -0.2419      2.4206     -0.3531      0.0000      0.0000      0.0000
     Y      0.0000      0.0000      0.0000      0.0002      0.0000      0.0000
 Anlyt      0.0000      0.0000     -0.6350      0.0000      0.0000      0.0000
            0.0000      0.0000      0.0000      0.0000      0.0000      0.0000
            0.0000

     4     -0.0244      0.0415     -0.0278      0.0000      0.0000      0.0000
     Z      0.0000      0.0000      0.0000     -0.0018      0.0000      0.0000
 Anlyt      0.0000      0.0000     -0.1299      0.0000      0.0000      0.0000
            0.0000      0.0000      0.0000      0.0000      0.0000      0.0000
            0.0000

     5     -1.0021     -5.0764     -0.4823      0.0000      0.0000      0.0000
     X      0.0000      0.0000      0.0000     -0.0149      0.0000      0.0000
 Anlyt      0.0000      0.0000      2.3133      0.0000      0.0000      0.0000
            0.0000      0.0000      0.0000      0.0000      0.0000      0.0000
            0.0000

     5      1.2180      0.8790     -0.1402      0.0000      0.0000      0.0000
     Y      0.0000      0.0000      0.0000     -0.4180      0.0000      0.0000
 Anlyt      0.0000      0.0000      1.4629      0.0000      0.0000      0.0000
            0.0000      0.0000      0.0000      0.0000      0.0000      0.0000
            0.0000

     5      2.5075     -2.4557     -0.1923      0.0000      0.0000      0.0000
     Z      0.0000      0.0000      0.0000      0.1971      0.0000      0.0000
 Anlyt      0.0000      0.0000     -0.5031      0.0000      0.0000      0.0000
            0.0000      0.0000      0.0000      0.0000      0.0000      0.0000
            0.0000

     6      7.1087     -1.9271      0.1423      0.0000      0.0000      0.0000
     X      0.0000      0.0000      0.0000     -0.8453      0.0000      0.0000
 Anlyt      0.0000      0.0000     -2.9706     -0.0306      0.0000      0.0000
            0.0000      0.0000      0.0000      0.0000      0.0000      0.0000
            0.0000

     6     -5.0543     10.3781      1.2368      0.0000      0.0000      0.0011
     Y      0.0000      0.0000      0.0000     -0.4145      0.0000      0.0000
 Anlyt      0.0000      0.0000      0.6258      0.2546      0.0000      0.0000
            0.0000      0.0000      0.0000      0.0000      0.0000      0.0000
            0.0000

     6     -0.7663      1.4174      0.1871      0.0000      0.0000     -0.0078
     Z      0.0000      0.0000      0.0000      0.1915      0.0000      0.0000
 Anlyt      0.0000      0.0000      0.1233      0.0361      0.0000      0.0000
            0.0000      0.0000      0.0000      0.0000      0.0000      0.0000
            0.0000

     7     -1.0799      0.3961      0.1976      0.0000      0.0000      0.0000
     X      0.0000      0.0000      0.0000      0.3415      0.0000      0.0000
 Anlyt      0.0000      0.0000     -0.8510      0.0000      0.0000      0.0000
            0.0000      0.0000      0.0000      0.0000      0.0000      0.0000
            0.0000

     7     -2.3664     -4.0488     -0.3168      0.0000      0.0000      0.0000
     Y      0.0000      0.0000      0.0000      0.1226      0.0000      0.0000
 Anlyt      0.0000      0.0000      1.0749      0.0000      0.0000      0.0000
            0.0000      0.0000      0.0000      0.0000      0.0000      0.0000
            0.0000

     7      2.7391     -3.3417      0.0393      0.0000      0.0000      0.0000
     Z      0.0000      0.0000      0.0000      0.2405      0.0000      0.0000
 Anlyt      0.0000      0.0000     -0.3185      0.0000      0.0000      0.0000
            0.0000      0.0000      0.0000      0.0000      0.0000      0.0000
            0.0000

     8     -1.1141      0.3994      0.1950      0.0000      0.0000      0.0000
     X      0.0000      0.0000      0.0000      0.3305      0.0000      0.0000
 Anlyt      0.0000      0.0000     -0.8500      0.0000      0.0000      0.0000
            0.0000      0.0000      0.0000      0.0000      0.0000      0.0000
            0.0000

     8     -1.5275     -4.7928     -0.2958      0.0000      0.0000      0.0000
     Y      0.0000      0.0000      0.0000      0.1794      0.0000      0.0000
 Anlyt      0.0000      0.0000      0.9582      0.0000      0.0000      0.0000
            0.0000      0.0000      0.0000      0.0000      0.0000      0.0000
            0.0000

     8     -3.2417      2.1211     -0.1315      0.0000      0.0000      0.0000
     Z      0.0000      0.0000      0.0000     -0.1981      0.0000      0.0000
 Anlyt      0.0000      0.0000      0.6098      0.0000      0.0000      0.0000
            0.0000      0.0000      0.0000      0.0000      0.0000      0.0000
            0.0000

     9    -12.0653    -15.9293     20.1372      0.0000      0.0000      0.0000
     X      0.0000      0.0000      0.0000     -0.1683      0.0000      0.0000
 Anlyt      0.0000      0.0000     -0.3231      0.0000      0.0000      0.0000
            0.0000      0.0000      0.0000      0.0000      0.0000      0.0000
            0.0000

     9    -15.5087     -1.4274      3.0134      0.0000      0.0000      0.0014
     Y      0.0000      0.0000      0.0000      0.0045      0.0000      0.0000
 Anlyt      0.0000      0.0000     -4.3646      0.0000      0.0000      0.0000
            0.0000      0.0000      0.0000      0.0000      0.0000      0.0000
            0.0000

     9     -2.1958      0.5765      0.4077      0.0000      0.0000     -0.0100
     Z      0.0000      0.0000      0.0000     -0.5603      0.0000      0.0000
 Anlyt      0.0000      0.0000     -0.6044      0.0000      0.0000      0.0000
            0.0000      0.0000      0.0000      0.0000      0.0000      0.0000
            0.0000

    10      5.4295     14.3272     -6.9492      0.0000      0.0000      0.0000
     X      0.0000      0.0000      0.0000      0.7553      0.0000      0.0000
 Anlyt      0.0000      0.0000     -5.6877     -0.2339      0.0000      0.0000
            0.0000      0.0000      0.0000      0.0000      0.0000      0.0000
            0.0000

    10     -2.0939     -4.6499     13.5827      0.0000      0.0000      0.0000
     Y      0.0000      0.0000      0.0000      0.3201      0.0000      0.0000
 Anlyt      0.0000      0.0000     -6.8091     -0.6076      0.0000      0.0000
            0.0000      0.0000      0.0000      0.0000      0.0000      0.0000
            0.0000

    10     -0.7524     -2.3584      2.1061      0.0000      0.0000      0.0000
     Z      0.0000      0.0000      0.0000      0.1374      0.0000      0.0000
 Anlyt      0.0000      0.0000     -0.8888     -0.0865      0.0000      0.0000
            0.0000      0.0000      0.0000      0.0000      0.0000      0.0000
            0.0000

    11     -3.2972     -1.6686      0.3607      0.0000      0.0000      0.0000
     X      0.0000      0.0000      0.0000     -0.1864      0.0000      0.0000
 Anlyt      0.0000      0.0000     -0.6878      0.0000      0.0000      0.0000
            0.0000      0.0000      0.0000      0.0000      0.0000      0.0000
            0.0000

    11      1.2383      5.3012     -0.2115      0.0000      0.0000      0.0000
     Y      0.0000      0.0000      0.0000     -0.1027      0.0000      0.0000
 Anlyt      0.0000      0.0000     -4.5954      0.0000      0.0000      0.0000
            0.0000      0.0000      0.0000      0.0000      0.0000      0.0000
            0.0000

    11     -3.6993      3.2618      0.1910      0.0000      0.0000      0.0000
     Z      0.0000      0.0000      0.0000      0.1318      0.0000      0.0000
 Anlyt      0.0000      0.0000      0.5719      0.0000      0.0000      0.0000
            0.0000      0.0000      0.0000      0.0000      0.0000      0.0000
            0.0000

    12     -2.5097     -1.5743      0.4053      0.0000      0.0000      0.0000
     X      0.0000      0.0000      0.0000     -0.4172      0.0000      0.0000
 Anlyt      0.0000      0.0000     -0.4763      0.0000      0.0000      0.0000
            0.0000      0.0000      0.0000      0.0000      0.0000      0.0000
            0.0000

    12      0.3312      4.4482     -0.1690      0.0000      0.0000      0.0000
     Y      0.0000      0.0000      0.0000     -0.1556      0.0000      0.0000
 Anlyt      0.0000      0.0000     -2.8124      0.0000      0.0000      0.0000
            0.0000      0.0000      0.0000      0.0000      0.0000      0.0000
            0.0000

    12      4.4294     -1.2246     -0.4600      0.0000      0.0000      0.0000
     Z      0.0000      0.0000      0.0000     -0.2248      0.0000      0.0000
 Anlyt      0.0000      0.0000     -1.3513      0.0000      0.0000      0.0000
            0.0000      0.0000      0.0000      0.0000      0.0000      0.0000
            0.0000

    13      0.4301      0.0691     -0.3701      0.0000      0.0000      0.0000
     X      0.0000      0.0000      0.0000      0.0161      0.0000      0.0000
 Anlyt      0.0000      0.0000     -0.0245      0.0000      0.0000      0.0000
            0.0000      0.0000      0.0000      0.0000      0.0000      0.0000
            0.0000

    13      0.4072     -0.0769     -0.5450      0.0000      0.0000      0.0000
     Y      0.0000      0.0000      0.0000     -0.0196      0.0000      0.0000
 Anlyt      0.0000      0.0000     -0.1226      0.0000      0.0000      0.0000
            0.0000      0.0000      0.0000      0.0000      0.0000      0.0000
            0.0000

    13      0.0056      0.2838     -0.0268      0.0000      0.0000      0.0000
     Z      0.0000      0.0000      0.0000      0.1878      0.0000      0.0000
 Anlyt      0.0000      0.0000     -0.0134      0.0000      0.0000      0.0000
            0.0000      0.0000      0.0000      0.0000      0.0000      0.0000
            0.0000

    14     -0.7866      0.1504      0.7545      0.0000      0.0000      0.0000
     X      0.0000      0.0000      0.0000     -0.0001      0.0000      0.0000
 Anlyt      0.0000      0.0000     -1.4934      0.0000      0.0000      0.0000
            0.0000      0.0000      0.0000      0.0000      0.0000      0.0000
            0.0000

    14     -0.0594     -1.9789     -0.2141      0.0000      0.0000      0.0000
     Y      0.0000      0.0000      0.0000      0.0021      0.0000      0.0000
 Anlyt      0.0000      0.0000      3.6547      0.0000      0.0000      0.0000
            0.0000      0.0000      0.0000      0.0000      0.0000      0.0000
            0.0000

    14     -0.0030     -0.2481     -0.0351      0.0000      0.0000      0.0000
     Z      0.0000      0.0000      0.0000     -0.0151      0.0000      0.0000
 Anlyt      0.0000      0.0000      0.5286      0.0000      0.0000      0.0000
            0.0000      0.0000      0.0000      0.0000      0.0000      0.0000
            0.0000

 Cartesian Gradient Breakdown over Individual Atoms :

  Type      Atom              dE/dX       dE/dY       dE/dZ          Norm

 Anlyt         1            20.2651     19.1334      2.5353       27.9855
 Anlyt         2             4.1673     -8.1273     -0.5350        9.1491
 Anlyt         3            -4.5303      3.0060      0.8271        5.4994
 Anlyt         4            -3.0686      1.1907     -0.1424        3.2946
 Anlyt         5            -4.2624      3.0016     -0.4465        5.2324
 Anlyt         6             1.4773      7.0276      1.1815        7.2778
 Anlyt         7            -0.9956     -5.5345     -0.6412        5.6598
 Anlyt         8            -1.0392     -5.4784     -0.8404        5.6390
 Anlyt         9            -8.3488    -18.2814     -2.3864       20.2388
 Anlyt        10             7.6412     -0.2577     -1.8424        7.8644
 Anlyt        11            -5.4793      1.6300      0.4572        5.7348
 Anlyt        12            -4.5723      1.6425      1.1687        4.9969
 Anlyt        13             0.1207     -0.3569      0.4370        0.5770
 Anlyt        14            -1.3751      1.4044      0.2274        1.9786

 Total Gradient Norm and RMS Gradient per Atom :

 Anlyt      Total Gradient Norm Value               39.8212

 Anlyt      RMS Gradient over All Atoms             10.6427
