
     ######################################################################
   ##########################################################################
  ###                                                                      ###
 ###            TINKER  ---  Software Tools for Molecular Design            ###
 ##                                                                          ##
 ##                        Version 7.1  February 2015                        ##
 ##                                                                          ##
 ##               Copyright (c)  Jay William Ponder  1990-2015               ##
 ###                           All Rights Reserved                          ###
  ###                                                                      ###
   ##########################################################################
     ######################################################################


 Total Potential Energy :                 16.4704 Kcal/mole

 Potential Energy Breakdown by Individual Components :

  Energy      EB          EA          EBA         EUB         EAA         EOPB
  Terms       EOPD        EID         EIT         ET          EPT         EBT
              EAT         ETT         EV          EC          ECD         ED
              EM          EP          ER          ES          ELF         EG
              EX

            0.7505      4.8545     -0.2061      0.0000      0.0000      0.0000
            0.0000      0.0000      0.0000      3.4493      0.0000      0.0000
            0.0000      0.0000      5.3539      2.2684      0.0000      0.0000
            0.0000      0.0000      0.0000      0.0000      0.0000      0.0000
            0.0000

 Cartesian Gradient Breakdown by Individual Components :

  Atom      d EB        d EA        d EBA       d EUB       d EAA       d EOPB
  Axis      d EOPD      d EID       d EIT       d ET        d EPT       d EBT
  Type      d EAT       d ETT       d EV        d EC        d ECD       d ED
            d EM        d EP        d ER        d ES        d ELF       d EG
            d EX

     1     21.8411     12.1461    -11.0839      0.0000      0.0000      0.0001
     X      0.0000      0.0000      0.0000      0.1425      0.0000      0.0000
 Anlyt      0.0000      0.0000     -0.8945      0.0000      0.0000      0.0000
            0.0000      0.0000      0.0000      0.0000      0.0000      0.0000
            0.0000

     1     31.9389      8.9013    -19.7206      0.0000      0.0000     -0.0005
     Y      0.0000      0.0000      0.0000     -0.0975      0.0000      0.0000
 Anlyt      0.0000      0.0000      4.0900      0.0000      0.0000      0.0000
            0.0000      0.0000      0.0000      0.0000      0.0000      0.0000
            0.0000

     1      4.2604      0.9451     -2.6723      0.0000      0.0000      0.0036
     Z      0.0000      0.0000      0.0000     -0.0812      0.0000      0.0000
 Anlyt      0.0000      0.0000      0.5466      0.0000      0.0000      0.0000
            0.0000      0.0000      0.0000      0.0000      0.0000      0.0000
            0.0000

     2    -14.5855     15.8911     -2.1599      0.0000      0.0000     -0.0000
     X      0.0000      0.0000      0.0000     -0.0075      0.0000      0.0000
 Anlyt      0.0000      0.0000      6.7044      0.2471      0.0000      0.0000
            0.0000      0.0000      0.0000      0.0000      0.0000      0.0000
            0.0000

     2     -2.9105    -17.4290      2.3766      0.0000      0.0000      0.0002
     Y      0.0000      0.0000      0.0000      0.8497      0.0000      0.0000
 Anlyt      0.0000      0.0000      6.0432      0.3690      0.0000      0.0000
            0.0000      0.0000      0.0000      0.0000      0.0000      0.0000
            0.0000

     2      0.3110     -2.3491      0.2727      0.0000      0.0000     -0.0011
     Z      0.0000      0.0000      0.0000      0.1098      0.0000      0.0000
 Anlyt      0.0000      0.0000      0.5485      0.0496      0.0000      0.0000
            0.0000      0.0000      0.0000      0.0000      0.0000      0.0000
            0.0000

     3     -1.2281     -4.9724     -0.4878      0.0000      0.0000      0.0000
     X      0.0000      0.0000      0.0000     -0.0009      0.0000      0.0000
 Anlyt      0.0000      0.0000      2.1440      0.0000      0.0000      0.0000
            0.0000      0.0000      0.0000      0.0000      0.0000      0.0000
            0.0000

     3      1.8087     -0.0753     -0.2640      0.0000      0.0000      0.0000
     Y      0.0000      0.0000      0.0000     -0.2662      0.0000      0.0000
 Anlyt      0.0000      0.0000      1.5387      0.0000      0.0000      0.0000
            0.0000      0.0000      0.0000      0.0000      0.0000      0.0000
            0.0000

     3     -2.4211      2.4660      0.2688      0.0000      0.0000      0.0000
     Z      0.0000      0.0000      0.0000     -0.1984      0.0000      0.0000
 Anlyt      0.0000      0.0000      0.8496      0.0000      0.0000      0.0000
            0.0000      0.0000      0.0000      0.0000      0.0000      0.0000
            0.0000

     4     -0.0886     -5.7374     -0.7545      0.0000      0.0000      0.0000
     X      0.0000      0.0000      0.0000     -0.0000      0.0000      0.0000
 Anlyt      0.0000      0.0000      3.7845      0.0000      0.0000      0.0000
            0.0000      0.0000      0.0000      0.0000      0.0000      0.0000
            0.0000

     4     -0.2239      2.2567     -0.3866      0.0000      0.0000      0.0000
     Y      0.0000      0.0000      0.0000      0.0001      0.0000      0.0000
 Anlyt      0.0000      0.0000     -0.6783      0.0000      0.0000      0.0000
            0.0000      0.0000      0.0000      0.0000      0.0000      0.0000
            0.0000

     4     -0.0216      0.1369     -0.0173      0.0000      0.0000      0.0000
     Z      0.0000      0.0000      0.0000     -0.0014      0.0000      0.0000
 Anlyt      0.0000      0.0000     -0.2328      0.0000      0.0000      0.0000
            0.0000      0.0000      0.0000      0.0000      0.0000      0.0000
            0.0000

     5     -0.9956     -5.0550     -0.5256      0.0000      0.0000      0.0000
     X      0.0000      0.0000      0.0000      0.0088      0.0000      0.0000
 Anlyt      0.0000      0.0000      2.3851      0.0000      0.0000      0.0000
            0.0000      0.0000      0.0000      0.0000      0.0000      0.0000
            0.0000

     5      1.1323      0.6026     -0.1787      0.0000      0.0000      0.0000
     Y      0.0000      0.0000      0.0000     -0.4227      0.0000      0.0000
 Anlyt      0.0000      0.0000      1.7330      0.0000      0.0000      0.0000
            0.0000      0.0000      0.0000      0.0000      0.0000      0.0000
            0.0000

     5      2.4708     -2.3131     -0.2185      0.0000      0.0000      0.0000
     Z      0.0000      0.0000      0.0000      0.1973      0.0000      0.0000
 Anlyt      0.0000      0.0000     -0.5508      0.0000      0.0000      0.0000
            0.0000      0.0000      0.0000      0.0000      0.0000      0.0000
            0.0000

     6      6.8377      2.5489     -1.7238      0.0000      0.0000     -0.0000
     X      0.0000      0.0000      0.0000     -0.7496      0.0000      0.0000
 Anlyt      0.0000      0.0000     -3.3413     -0.0403      0.0000      0.0000
            0.0000      0.0000      0.0000      0.0000      0.0000      0.0000
            0.0000

     6     -9.5649     12.6099      0.6883      0.0000      0.0000      0.0002
     Y      0.0000      0.0000      0.0000     -0.3900      0.0000      0.0000
 Anlyt      0.0000      0.0000      0.5524      0.2488      0.0000      0.0000
            0.0000      0.0000      0.0000      0.0000      0.0000      0.0000
            0.0000

     6     -1.5555      1.7133      0.1563      0.0000      0.0000     -0.0011
     Z      0.0000      0.0000      0.0000      0.2093      0.0000      0.0000
 Anlyt      0.0000      0.0000      0.1995      0.0379      0.0000      0.0000
            0.0000      0.0000      0.0000      0.0000      0.0000      0.0000
            0.0000

     7     -1.4750     -2.4484      0.5318      0.0000      0.0000      0.0000
     X      0.0000      0.0000      0.0000      0.3165      0.0000      0.0000
 Anlyt      0.0000      0.0000     -1.2748      0.0000      0.0000      0.0000
            0.0000      0.0000      0.0000      0.0000      0.0000      0.0000
            0.0000

     7     -2.9806     -2.5928      0.0761      0.0000      0.0000      0.0000
     Y      0.0000      0.0000      0.0000      0.1139      0.0000      0.0000
 Anlyt      0.0000      0.0000      1.3722      0.0000      0.0000      0.0000
            0.0000      0.0000      0.0000      0.0000      0.0000      0.0000
            0.0000

     7      3.4806     -3.2578     -0.6775      0.0000      0.0000      0.0000
     Z      0.0000      0.0000      0.0000      0.2317      0.0000      0.0000
 Anlyt      0.0000      0.0000     -0.4151      0.0000      0.0000      0.0000
            0.0000      0.0000      0.0000      0.0000      0.0000      0.0000
            0.0000

     8     -1.7060     -2.3054      0.5713      0.0000      0.0000      0.0000
     X      0.0000      0.0000      0.0000      0.2966      0.0000      0.0000
 Anlyt      0.0000      0.0000     -1.2342      0.0000      0.0000      0.0000
            0.0000      0.0000      0.0000      0.0000      0.0000      0.0000
            0.0000

     8     -1.8942     -3.4035     -0.1137      0.0000      0.0000      0.0000
     Y      0.0000      0.0000      0.0000      0.1733      0.0000      0.0000
 Anlyt      0.0000      0.0000      1.2017      0.0000      0.0000      0.0000
            0.0000      0.0000      0.0000      0.0000      0.0000      0.0000
            0.0000

     8     -4.1231      2.5175      0.6448      0.0000      0.0000      0.0000
     Z      0.0000      0.0000      0.0000     -0.2023      0.0000      0.0000
 Anlyt      0.0000      0.0000      0.8577      0.0000      0.0000      0.0000
            0.0000      0.0000      0.0000      0.0000      0.0000      0.0000
            0.0000

     9      3.1933      0.0839      2.2087      0.0000      0.0000      0.0000
     X      0.0000      0.0000      0.0000     -0.0004      0.0000      0.0000
 Anlyt      0.0000      0.0000     -0.8610      0.0000      0.0000      0.0000
            0.0000      0.0000      0.0000      0.0000      0.0000      0.0000
            0.0000

     9      0.0476     -7.6031     -0.4404      0.0000      0.0000      0.0000
     Y      0.0000      0.0000      0.0000      0.0022      0.0000      0.0000
 Anlyt      0.0000      0.0000      2.0329      0.0000      0.0000      0.0000
            0.0000      0.0000      0.0000      0.0000      0.0000      0.0000
            0.0000

     9     -0.0853     -1.0991     -0.1269      0.0000      0.0000      0.0000
     Z      0.0000      0.0000      0.0000     -0.0153      0.0000      0.0000
 Anlyt      0.0000      0.0000      0.3268      0.0000      0.0000      0.0000
            0.0000      0.0000      0.0000      0.0000      0.0000      0.0000
            0.0000

    10    -12.1691    -21.1639     20.7995      0.0000      0.0000     -0.0000
     X      0.0000      0.0000      0.0000     -0.1748      0.0000      0.0000
 Anlyt      0.0000      0.0000     -0.9879      0.0000      0.0000      0.0000
            0.0000      0.0000      0.0000      0.0000      0.0000      0.0000
            0.0000

    10    -16.6286      1.0136      5.6136      0.0000      0.0000      0.0002
     Y      0.0000      0.0000      0.0000     -0.0205      0.0000      0.0000
 Anlyt      0.0000      0.0000     -2.8026      0.0000      0.0000      0.0000
            0.0000      0.0000      0.0000      0.0000      0.0000      0.0000
            0.0000

    10     -2.1997      1.3039      0.3617      0.0000      0.0000     -0.0014
     Z      0.0000      0.0000      0.0000     -0.4357      0.0000      0.0000
 Anlyt      0.0000      0.0000     -0.3718      0.0000      0.0000      0.0000
            0.0000      0.0000      0.0000      0.0000      0.0000      0.0000
            0.0000

    11      5.8043     14.6519     -7.8774      0.0000      0.0000      0.0000
     X      0.0000      0.0000      0.0000      0.7436      0.0000      0.0000
 Anlyt      0.0000      0.0000     -5.5445     -0.2068      0.0000      0.0000
            0.0000      0.0000      0.0000      0.0000      0.0000      0.0000
            0.0000

    11     -2.3770     -3.7577     13.3879      0.0000      0.0000      0.0000
     Y      0.0000      0.0000      0.0000      0.3694      0.0000      0.0000
 Anlyt      0.0000      0.0000     -7.3635     -0.6179      0.0000      0.0000
            0.0000      0.0000      0.0000      0.0000      0.0000      0.0000
            0.0000

    11     -0.8882     -2.4122      2.3231      0.0000      0.0000      0.0000
     Z      0.0000      0.0000      0.0000      0.1001      0.0000      0.0000
 Anlyt      0.0000      0.0000     -0.8810     -0.0874      0.0000      0.0000
            0.0000      0.0000      0.0000      0.0000      0.0000      0.0000
            0.0000

    12     -3.3417     -1.9114      0.3859      0.0000      0.0000      0.0000
     X      0.0000      0.0000      0.0000     -0.1908      0.0000      0.0000
 Anlyt      0.0000      0.0000     -0.4609      0.0000      0.0000      0.0000
            0.0000      0.0000      0.0000      0.0000      0.0000      0.0000
            0.0000

    12      1.0847      5.1227     -0.2409      0.0000      0.0000      0.0000
     Y      0.0000      0.0000      0.0000     -0.1213      0.0000      0.0000
 Anlyt      0.0000      0.0000     -4.6206      0.0000      0.0000      0.0000
            0.0000      0.0000      0.0000      0.0000      0.0000      0.0000
            0.0000

    12     -3.6414      3.2800      0.1660      0.0000      0.0000      0.0000
     Z      0.0000      0.0000      0.0000      0.1390      0.0000      0.0000
 Anlyt      0.0000      0.0000      0.5517      0.0000      0.0000      0.0000
            0.0000      0.0000      0.0000      0.0000      0.0000      0.0000
            0.0000

    13     -2.4863     -1.8393      0.4210      0.0000      0.0000      0.0000
     X      0.0000      0.0000      0.0000     -0.3998      0.0000      0.0000
 Anlyt      0.0000      0.0000     -0.4021      0.0000      0.0000      0.0000
            0.0000      0.0000      0.0000      0.0000      0.0000      0.0000
            0.0000

    13      0.1454      4.4651     -0.1919      0.0000      0.0000      0.0000
     Y      0.0000      0.0000      0.0000     -0.1719      0.0000      0.0000
 Anlyt      0.0000      0.0000     -2.9740      0.0000      0.0000      0.0000
            0.0000      0.0000      0.0000      0.0000      0.0000      0.0000
            0.0000

    13      4.4048     -1.1856     -0.4415      0.0000      0.0000      0.0000
     Z      0.0000      0.0000      0.0000     -0.2200      0.0000      0.0000
 Anlyt      0.0000      0.0000     -1.4143      0.0000      0.0000      0.0000
            0.0000      0.0000      0.0000      0.0000      0.0000      0.0000
            0.0000

    14      0.3996      0.1114     -0.3053      0.0000      0.0000      0.0000
     X      0.0000      0.0000      0.0000      0.0161      0.0000      0.0000
 Anlyt      0.0000      0.0000     -0.0168      0.0000      0.0000      0.0000
            0.0000      0.0000      0.0000      0.0000      0.0000      0.0000
            0.0000

    14      0.4220     -0.1105     -0.6058      0.0000      0.0000      0.0000
     Y      0.0000      0.0000      0.0000     -0.0185      0.0000      0.0000
 Anlyt      0.0000      0.0000     -0.1253      0.0000      0.0000      0.0000
            0.0000      0.0000      0.0000      0.0000      0.0000      0.0000
            0.0000

    14      0.0083      0.2545     -0.0394      0.0000      0.0000      0.0000
     Z      0.0000      0.0000      0.0000      0.1672      0.0000      0.0000
 Anlyt      0.0000      0.0000     -0.0147      0.0000      0.0000      0.0000
            0.0000      0.0000      0.0000      0.0000      0.0000      0.0000
            0.0000

 Cartesian Gradient Breakdown over Individual Atoms :

  Type      Atom              dE/dX       dE/dY       dE/dZ          Norm

 Anlyt         1            22.1514     25.1116      3.0022       33.6198
 Anlyt         2             6.0896    -10.7008     -1.0587       12.3576
 Anlyt         3            -4.5453      2.7419      0.9648        5.3952
 Anlyt         4            -2.7961      0.9681     -0.1363        2.9621
 Anlyt         5            -4.1823      2.8666     -0.4143        5.0873
 Anlyt         6             3.5315      4.1446      0.7597        5.4979
 Anlyt         7            -4.3499     -4.0111     -0.6382        5.9513
 Anlyt         8            -4.3777     -4.0364     -0.3053        5.9624
 Anlyt         9             4.6245     -5.9608     -0.9998        7.6103
 Anlyt        10           -13.6963    -12.8243     -1.3431       18.8110
 Anlyt        11             7.5711     -0.3587     -1.8455        7.8011
 Anlyt        12            -5.5190      1.2246      0.4952        5.6749
 Anlyt        13            -4.7066      1.2728      1.1434        5.0079
 Anlyt        14             0.2050     -0.4381      0.3759        0.6126

 Total Gradient Norm and RMS Gradient per Atom :

 Anlyt      Total Gradient Norm Value               44.4774

 Anlyt      RMS Gradient over All Atoms             11.8871
