
     ######################################################################
   ##########################################################################
  ###                                                                      ###
 ###            TINKER  ---  Software Tools for Molecular Design            ###
 ##                                                                          ##
 ##                        Version 7.1  February 2015                        ##
 ##                                                                          ##
 ##               Copyright (c)  Jay William Ponder  1990-2015               ##
 ###                           All Rights Reserved                          ###
  ###                                                                      ###
   ##########################################################################
     ######################################################################


 Total Potential Energy :                 19.1575 Kcal/mole

 Potential Energy Breakdown by Individual Components :

  Energy      EB          EA          EBA         EUB         EAA         EOPB
  Terms       EOPD        EID         EIT         ET          EPT         EBT
              EAT         ETT         EV          EC          ECD         ED
              EM          EP          ER          ES          ELF         EG
              EX

            1.1612      6.8781     -0.2592      0.0000      0.0000      0.0000
            0.0000      0.0000      0.0000      3.4373      0.0000      0.0000
            0.0000      0.0000      5.6726      2.2675      0.0000      0.0000
            0.0000      0.0000      0.0000      0.0000      0.0000      0.0000
            0.0000

 Cartesian Gradient Breakdown by Individual Components :

  Atom      d EB        d EA        d EBA       d EUB       d EAA       d EOPB
  Axis      d EOPD      d EID       d EIT       d ET        d EPT       d EBT
  Type      d EAT       d ETT       d EV        d EC        d ECD       d ED
            d EM        d EP        d ER        d ES        d ELF       d EG
            d EX

     1     19.7830     14.6556    -11.9995      0.0000      0.0000      0.0080
     X      0.0000      0.0000      0.0000      0.1314      0.0000      0.0000
 Anlyt      0.0000      0.0000     -1.3003      0.0000      0.0000      0.0000
            0.0000      0.0000      0.0000      0.0000      0.0000      0.0000
            0.0000

     1     40.3659      9.9730    -22.1292      0.0000      0.0000     -0.0191
     Y      0.0000      0.0000      0.0000     -0.1154      0.0000      0.0000
 Anlyt      0.0000      0.0000      3.9528      0.0000      0.0000      0.0000
            0.0000      0.0000      0.0000      0.0000      0.0000      0.0000
            0.0000

     1      4.4512      0.4695     -2.3742      0.0000      0.0000      0.1379
     Z      0.0000      0.0000      0.0000      0.0134      0.0000      0.0000
 Anlyt      0.0000      0.0000      0.6641      0.0000      0.0000      0.0000
            0.0000      0.0000      0.0000      0.0000      0.0000      0.0000
            0.0000

     2    -15.3016     17.8913     -0.4918      0.0000      0.0000     -0.0024
     X      0.0000      0.0000      0.0000     -0.0856      0.0000      0.0000
 Anlyt      0.0000      0.0000      6.8366      0.2097      0.0000      0.0000
            0.0000      0.0000      0.0000      0.0000      0.0000      0.0000
            0.0000

     2     -4.3903    -18.5211      2.7175      0.0000      0.0000      0.0058
     Y      0.0000      0.0000      0.0000      0.8404      0.0000      0.0000
 Anlyt      0.0000      0.0000      6.2473      0.3958      0.0000      0.0000
            0.0000      0.0000      0.0000      0.0000      0.0000      0.0000
            0.0000

     2     -0.0656     -4.0535      0.5063      0.0000      0.0000     -0.0418
     Z      0.0000      0.0000      0.0000      0.1777      0.0000      0.0000
 Anlyt      0.0000      0.0000      0.6061      0.0424      0.0000      0.0000
            0.0000      0.0000      0.0000      0.0000      0.0000      0.0000
            0.0000

     3     -1.2910     -4.7664     -0.5042      0.0000      0.0000      0.0000
     X      0.0000      0.0000      0.0000      0.0251      0.0000      0.0000
 Anlyt      0.0000      0.0000      2.3894      0.0000      0.0000      0.0000
            0.0000      0.0000      0.0000      0.0000      0.0000      0.0000
            0.0000

     3      1.6314     -0.5982     -0.3253      0.0000      0.0000      0.0000
     Y      0.0000      0.0000      0.0000     -0.3378      0.0000      0.0000
 Anlyt      0.0000      0.0000      1.9256      0.0000      0.0000      0.0000
            0.0000      0.0000      0.0000      0.0000      0.0000      0.0000
            0.0000

     3     -1.9837      2.6100      0.2394      0.0000      0.0000      0.0000
     Z      0.0000      0.0000      0.0000     -0.2941      0.0000      0.0000
 Anlyt      0.0000      0.0000      0.9124      0.0000      0.0000      0.0000
            0.0000      0.0000      0.0000      0.0000      0.0000      0.0000
            0.0000

     4     -0.0427     -6.3068     -0.7718      0.0000      0.0000      0.0000
     X      0.0000      0.0000      0.0000     -0.0001      0.0000      0.0000
 Anlyt      0.0000      0.0000      4.5533      0.0000      0.0000      0.0000
            0.0000      0.0000      0.0000      0.0000      0.0000      0.0000
            0.0000

     4     -0.1430      1.7565     -0.4876      0.0000      0.0000      0.0000
     Y      0.0000      0.0000      0.0000      0.0003      0.0000      0.0000
 Anlyt      0.0000      0.0000     -0.4968      0.0000      0.0000      0.0000
            0.0000      0.0000      0.0000      0.0000      0.0000      0.0000
            0.0000

     4     -0.0217      0.8381     -0.0420      0.0000      0.0000      0.0000
     Z      0.0000      0.0000      0.0000     -0.0018      0.0000      0.0000
 Anlyt      0.0000      0.0000     -0.2767      0.0000      0.0000      0.0000
            0.0000      0.0000      0.0000      0.0000      0.0000      0.0000
            0.0000

     5     -1.1137     -5.0141     -0.5155      0.0000      0.0000      0.0000
     X      0.0000      0.0000      0.0000      0.0416      0.0000      0.0000
 Anlyt      0.0000      0.0000      2.0535      0.0000      0.0000      0.0000
            0.0000      0.0000      0.0000      0.0000      0.0000      0.0000
            0.0000

     5      0.9369      0.0773     -0.2520      0.0000      0.0000      0.0000
     Y      0.0000      0.0000      0.0000     -0.3283      0.0000      0.0000
 Anlyt      0.0000      0.0000      2.0322      0.0000      0.0000      0.0000
            0.0000      0.0000      0.0000      0.0000      0.0000      0.0000
            0.0000

     5      2.8153     -2.0093     -0.3352      0.0000      0.0000      0.0000
     Z      0.0000      0.0000      0.0000      0.1257      0.0000      0.0000
 Anlyt      0.0000      0.0000     -0.5513      0.0000      0.0000      0.0000
            0.0000      0.0000      0.0000      0.0000      0.0000      0.0000
            0.0000

     6     -1.7798      8.4124     -3.0074      0.0000      0.0000     -0.0024
     X      0.0000      0.0000      0.0000     -0.6660      0.0000      0.0000
 Anlyt      0.0000      0.0000     -3.7087     -0.0620      0.0000      0.0000
            0.0000      0.0000      0.0000      0.0000      0.0000      0.0000
            0.0000

     6    -10.4106     17.0196     -0.6053      0.0000      0.0000      0.0057
     Y      0.0000      0.0000      0.0000     -0.3380      0.0000      0.0000
 Anlyt      0.0000      0.0000      0.2805      0.2416      0.0000      0.0000
            0.0000      0.0000      0.0000      0.0000      0.0000      0.0000
            0.0000

     6     -1.4211      2.3178      0.0225      0.0000      0.0000     -0.0413
     Z      0.0000      0.0000      0.0000     -0.2127      0.0000      0.0000
 Anlyt      0.0000      0.0000      0.2156      0.0369      0.0000      0.0000
            0.0000      0.0000      0.0000      0.0000      0.0000      0.0000
            0.0000

     7     -1.8465     -4.7402      0.7213      0.0000      0.0000      0.0000
     X      0.0000      0.0000      0.0000      0.2762      0.0000      0.0000
 Anlyt      0.0000      0.0000     -1.9719      0.0000      0.0000      0.0000
            0.0000      0.0000      0.0000      0.0000      0.0000      0.0000
            0.0000

     7     -3.7909     -1.1333      0.7695      0.0000      0.0000      0.0000
     Y      0.0000      0.0000      0.0000      0.1179      0.0000      0.0000
 Anlyt      0.0000      0.0000      1.7214      0.0000      0.0000      0.0000
            0.0000      0.0000      0.0000      0.0000      0.0000      0.0000
            0.0000

     7      4.3813     -2.9783     -1.5348      0.0000      0.0000      0.0000
     Z      0.0000      0.0000      0.0000      0.2184      0.0000      0.0000
 Anlyt      0.0000      0.0000     -0.5677      0.0000      0.0000      0.0000
            0.0000      0.0000      0.0000      0.0000      0.0000      0.0000
            0.0000

     8     -2.2814     -4.4857      0.8615      0.0000      0.0000      0.0000
     X      0.0000      0.0000      0.0000      0.2675      0.0000      0.0000
 Anlyt      0.0000      0.0000     -1.8123      0.0000      0.0000      0.0000
            0.0000      0.0000      0.0000      0.0000      0.0000      0.0000
            0.0000

     8     -2.4161     -1.9945      0.3071      0.0000      0.0000      0.0000
     Y      0.0000      0.0000      0.0000      0.1858      0.0000      0.0000
 Anlyt      0.0000      0.0000      1.4002      0.0000      0.0000      0.0000
            0.0000      0.0000      0.0000      0.0000      0.0000      0.0000
            0.0000

     8     -5.1246      2.9374      1.6194      0.0000      0.0000      0.0000
     Z      0.0000      0.0000      0.0000     -0.2067      0.0000      0.0000
 Anlyt      0.0000      0.0000      1.1867      0.0000      0.0000      0.0000
            0.0000      0.0000      0.0000      0.0000      0.0000      0.0000
            0.0000

     9     15.3705     -0.2994      3.5900      0.0000      0.0000      0.0000
     X      0.0000      0.0000      0.0000      0.0013      0.0000      0.0000
 Anlyt      0.0000      0.0000     -0.4951      0.0000      0.0000      0.0000
            0.0000      0.0000      0.0000      0.0000      0.0000      0.0000
            0.0000

     9     -0.2125    -14.5472     -0.5888      0.0000      0.0000      0.0000
     Y      0.0000      0.0000      0.0000     -0.0041      0.0000      0.0000
 Anlyt      0.0000      0.0000      1.0073      0.0000      0.0000      0.0000
            0.0000      0.0000      0.0000      0.0000      0.0000      0.0000
            0.0000

     9     -0.7182     -2.1035     -0.2461      0.0000      0.0000      0.0000
     Z      0.0000      0.0000      0.0000      0.0282      0.0000      0.0000
 Anlyt      0.0000      0.0000      0.1622      0.0000      0.0000      0.0000
            0.0000      0.0000      0.0000      0.0000      0.0000      0.0000
            0.0000

    10    -12.2175    -25.9659     20.8947      0.0000      0.0000     -0.0032
     X      0.0000      0.0000      0.0000     -0.1417      0.0000      0.0000
 Anlyt      0.0000      0.0000     -1.3545      0.0000      0.0000      0.0000
            0.0000      0.0000      0.0000      0.0000      0.0000      0.0000
            0.0000

    10    -20.4725      1.1276      9.0700      0.0000      0.0000      0.0076
     Y      0.0000      0.0000      0.0000     -0.1428      0.0000      0.0000
 Anlyt      0.0000      0.0000     -1.9628      0.0000      0.0000      0.0000
            0.0000      0.0000      0.0000      0.0000      0.0000      0.0000
            0.0000

    10     -2.1211      1.2254      0.0652      0.0000      0.0000     -0.0548
     Z      0.0000      0.0000      0.0000      0.2856      0.0000      0.0000
 Anlyt      0.0000      0.0000     -0.2128      0.0000      0.0000      0.0000
            0.0000      0.0000      0.0000      0.0000      0.0000      0.0000
            0.0000

    11      6.3599     15.3256     -9.4670      0.0000      0.0000      0.0000
     X      0.0000      0.0000      0.0000      0.7060      0.0000      0.0000
 Anlyt      0.0000      0.0000     -4.9812     -0.1477      0.0000      0.0000
            0.0000      0.0000      0.0000      0.0000      0.0000      0.0000
            0.0000

    11     -2.2107     -2.2507     12.6112      0.0000      0.0000      0.0000
     Y      0.0000      0.0000      0.0000      0.4717      0.0000      0.0000
 Anlyt      0.0000      0.0000     -8.1938     -0.6374      0.0000      0.0000
            0.0000      0.0000      0.0000      0.0000      0.0000      0.0000
            0.0000

    11     -0.4125     -0.2562      2.1781      0.0000      0.0000      0.0000
     Z      0.0000      0.0000      0.0000     -0.0473      0.0000      0.0000
 Anlyt      0.0000      0.0000     -0.9160     -0.0793      0.0000      0.0000
            0.0000      0.0000      0.0000      0.0000      0.0000      0.0000
            0.0000

    12     -3.0266     -2.2041      0.4795      0.0000      0.0000      0.0000
     X      0.0000      0.0000      0.0000     -0.3226      0.0000      0.0000
 Anlyt      0.0000      0.0000     -0.0579      0.0000      0.0000      0.0000
            0.0000      0.0000      0.0000      0.0000      0.0000      0.0000
            0.0000

    12      0.9987      3.9049     -0.2739      0.0000      0.0000      0.0000
     Y      0.0000      0.0000      0.0000     -0.2442      0.0000      0.0000
 Anlyt      0.0000      0.0000     -3.6654      0.0000      0.0000      0.0000
            0.0000      0.0000      0.0000      0.0000      0.0000      0.0000
            0.0000

    12     -3.9415      2.6820      0.2815      0.0000      0.0000      0.0000
     Z      0.0000      0.0000      0.0000      0.1858      0.0000      0.0000
 Anlyt      0.0000      0.0000      0.5538      0.0000      0.0000      0.0000
            0.0000      0.0000      0.0000      0.0000      0.0000      0.0000
            0.0000

    13     -2.9368     -2.6304      0.4144      0.0000      0.0000      0.0000
     X      0.0000      0.0000      0.0000     -0.2316      0.0000      0.0000
 Anlyt      0.0000      0.0000     -0.1475      0.0000      0.0000      0.0000
            0.0000      0.0000      0.0000      0.0000      0.0000      0.0000
            0.0000

    13     -0.2964      5.2609     -0.1763      0.0000      0.0000      0.0000
     Y      0.0000      0.0000      0.0000     -0.1215      0.0000      0.0000
 Anlyt      0.0000      0.0000     -4.1211      0.0000      0.0000      0.0000
            0.0000      0.0000      0.0000      0.0000      0.0000      0.0000
            0.0000

    13      4.1003     -1.5037     -0.2804      0.0000      0.0000      0.0000
     Z      0.0000      0.0000      0.0000     -0.1747      0.0000      0.0000
 Anlyt      0.0000      0.0000     -1.7571      0.0000      0.0000      0.0000
            0.0000      0.0000      0.0000      0.0000      0.0000      0.0000
            0.0000

    14      0.3244      0.1280     -0.2044      0.0000      0.0000      0.0000
     X      0.0000      0.0000      0.0000     -0.0016      0.0000      0.0000
 Anlyt      0.0000      0.0000     -0.0033      0.0000      0.0000      0.0000
            0.0000      0.0000      0.0000      0.0000      0.0000      0.0000
            0.0000

    14      0.4102     -0.0747     -0.6370      0.0000      0.0000      0.0000
     Y      0.0000      0.0000      0.0000      0.0160      0.0000      0.0000
 Anlyt      0.0000      0.0000     -0.1274      0.0000      0.0000      0.0000
            0.0000      0.0000      0.0000      0.0000      0.0000      0.0000
            0.0000

    14      0.0620     -0.1758     -0.0998      0.0000      0.0000      0.0000
     Z      0.0000      0.0000      0.0000     -0.0976      0.0000      0.0000
 Anlyt      0.0000      0.0000     -0.0194      0.0000      0.0000      0.0000
            0.0000      0.0000      0.0000      0.0000      0.0000      0.0000
            0.0000

 Cartesian Gradient Breakdown over Individual Atoms :

  Type      Atom              dE/dX       dE/dY       dE/dZ          Norm

 Anlyt         1            21.2781     32.0280      3.3619       38.5987
 Anlyt         2             9.0563    -12.7046     -2.8283       15.8563
 Anlyt         3            -4.1471      2.2957      1.4841        4.9670
 Anlyt         4            -2.5681      0.6295      0.4958        2.6902
 Anlyt         5            -4.5481      2.4661      0.0451        5.1739
 Anlyt         6            -0.8139      6.1934      0.9178        6.3137
 Anlyt         7            -7.5611     -2.3154     -0.4811        7.9223
 Anlyt         8            -7.4504     -2.5175      0.4122        7.8750
 Anlyt         9            18.1673    -14.3454     -2.8774       23.3263
 Anlyt        10           -18.7881    -12.3730     -0.8125       22.5109
 Anlyt        11             7.7956     -0.2097      0.4668        7.8124
 Anlyt        12            -5.1316      0.7202     -0.2384        5.1874
 Anlyt        13            -5.5319      0.5456      0.3845        5.5720
 Anlyt        14             0.2431     -0.4129     -0.3306        0.5821

 Total Gradient Norm and RMS Gradient per Atom :

 Anlyt      Total Gradient Norm Value               55.9892

 Anlyt      RMS Gradient over All Atoms             14.9637
