 Entering Gaussian System, Link 0=g09
 Initial command:
 /mnt/data/applications/G09/g09/l1.exe "/scratch/Gau-22773.inp" -scrdir="/scratch/"
 Entering Link 1 = /mnt/data/applications/G09/g09/l1.exe PID=     22774.
  
 Copyright (c) 1988,1990,1992,1993,1995,1998,2003,2009,2013,
            Gaussian, Inc.  All Rights Reserved.
  
 This is part of the Gaussian(R) 09 program.  It is based on
 the Gaussian(R) 03 system (copyright 2003, Gaussian, Inc.),
 the Gaussian(R) 98 system (copyright 1998, Gaussian, Inc.),
 the Gaussian(R) 94 system (copyright 1995, Gaussian, Inc.),
 the Gaussian 92(TM) system (copyright 1992, Gaussian, Inc.),
 the Gaussian 90(TM) system (copyright 1990, Gaussian, Inc.),
 the Gaussian 88(TM) system (copyright 1988, Gaussian, Inc.),
 the Gaussian 86(TM) system (copyright 1986, Carnegie Mellon
 University), and the Gaussian 82(TM) system (copyright 1983,
 Carnegie Mellon University). Gaussian is a federally registered
 trademark of Gaussian, Inc.
  
 This software contains proprietary and confidential information,
 including trade secrets, belonging to Gaussian, Inc.
  
 This software is provided under written license and may be
 used, copied, transmitted, or stored only in accord with that
 written license.
  
 The following legend is applicable only to US Government
 contracts under FAR:
  
                    RESTRICTED RIGHTS LEGEND
  
 Use, reproduction and disclosure by the US Government is
 subject to restrictions as set forth in subparagraphs (a)
 and (c) of the Commercial Computer Software - Restricted
 Rights clause in FAR 52.227-19.
  
 Gaussian, Inc.
 340 Quinnipiac St., Bldg. 40, Wallingford CT 06492
  
  
 ---------------------------------------------------------------
 Warning -- This program may not be used in any manner that
 competes with the business of Gaussian, Inc. or will provide
 assistance to any competitor of Gaussian, Inc.  The licensee
 of this program is prohibited from giving any competitor of
 Gaussian, Inc. access to this program.  By using this program,
 the user acknowledges that Gaussian, Inc. is engaged in the
 business of creating and licensing software in the field of
 computational chemistry and represents and warrants to the
 licensee that it is not a competitor of Gaussian, Inc. and that
 it will not use this program in any manner prohibited above.
 ---------------------------------------------------------------
  

 Cite this work as:
 Gaussian 09, Revision D.01,
 M. J. Frisch, G. W. Trucks, H. B. Schlegel, G. E. Scuseria, 
 M. A. Robb, J. R. Cheeseman, G. Scalmani, V. Barone, B. Mennucci, 
 G. A. Petersson, H. Nakatsuji, M. Caricato, X. Li, H. P. Hratchian, 
 A. F. Izmaylov, J. Bloino, G. Zheng, J. L. Sonnenberg, M. Hada, 
 M. Ehara, K. Toyota, R. Fukuda, J. Hasegawa, M. Ishida, T. Nakajima, 
 Y. Honda, O. Kitao, H. Nakai, T. Vreven, J. A. Montgomery, Jr., 
 J. E. Peralta, F. Ogliaro, M. Bearpark, J. J. Heyd, E. Brothers, 
 K. N. Kudin, V. N. Staroverov, T. Keith, R. Kobayashi, J. Normand, 
 K. Raghavachari, A. Rendell, J. C. Burant, S. S. Iyengar, J. Tomasi, 
 M. Cossi, N. Rega, J. M. Millam, M. Klene, J. E. Knox, J. B. Cross, 
 V. Bakken, C. Adamo, J. Jaramillo, R. Gomperts, R. E. Stratmann, 
 O. Yazyev, A. J. Austin, R. Cammi, C. Pomelli, J. W. Ochterski, 
 R. L. Martin, K. Morokuma, V. G. Zakrzewski, G. A. Voth, 
 P. Salvador, J. J. Dannenberg, S. Dapprich, A. D. Daniels, 
 O. Farkas, J. B. Foresman, J. V. Ortiz, J. Cioslowski, 
 and D. J. Fox, Gaussian, Inc., Wallingford CT, 2013.
 
 ******************************************
 Gaussian 09:  EM64L-G09RevD.01 24-Apr-2013
                 7-Feb-2017 
 ******************************************
 %nprocshared=8
 Will use up to    8 processors via shared memory.
 %mem=8000MB
 %chk=I_4
 ----------------------------------------------------------------------
 #p opt=nomicro oniom(B3LYP/6-31G*:external="./sictwo_files/sictwo_g09d
 01") geom=connectivity nosymm scf(maxcyc=100)
 ----------------------------------------------------------------------
 1/14=-1,18=20,19=15,26=1,38=1,52=2,57=2/1,3;
 2/9=110,12=2,15=1,17=6,18=5,40=1/2;
 1/14=-1,18=20,19=15,26=1,38=1,52=2,53=3172/20;
 3/11=9,16=1,25=1,30=1,41=9900000,43=2,71=1/1;
 4/20=17,22=1,23=100,24=3,113=1,114=1/2;
 6/7=2,8=2,9=2,10=2/1;
 7/7=1,30=1,33=-1,44=-1/16;
 1/14=-1,18=20,19=15,26=1,52=2,53=2032/20;
 3/5=1,6=6,7=1,11=2,16=1,25=1,30=1,71=1,74=-5/1,2,3;
 4//1;
 5/5=2,7=100,38=5/2;
 6/7=2,8=2,9=2,10=2,28=1/1;
 7/7=1,30=1,33=-1/1,2,3,16;
 1/14=-1,18=20,19=15,26=1,52=2,53=1022/20;
 3/11=9,16=1,25=1,30=1,41=9900000,43=2,71=1/1;
 4/20=17,22=1,23=100,24=3,113=1,114=2/2;
 6/7=2,8=2,9=2,10=2/1;
 7/7=1,30=1,33=-1,44=-1/16;
 1/14=-1,18=20,19=15,26=1,52=2,53=3015/20;
 7/9=1,44=-1/16;
 1/14=-1,18=20,19=15,26=1,52=2/3(2);
 2/9=110,15=1/2;
 99//99;
 2/9=110,15=1/2;
 1/14=-1,18=20,19=15,26=1,52=2,53=3173/20;
 3/11=9,16=1,25=1,30=1,41=9900000,43=2,71=1/1;
 4/16=2,20=17,22=1,23=100,24=3,113=1,114=1/2;
 7/7=1,30=1,33=-1,44=-1/16;
 1/14=-1,18=20,19=15,26=1,52=2,53=2033/20;
 3/5=1,6=6,7=1,11=2,16=1,25=1,30=1,71=1,74=-5/1,2,3;
 4/5=5,16=3,69=1/1;
 5/5=2,7=100,38=5/2;
 7/7=1,30=1,33=-1/1,2,3,16;
 1/14=-1,18=20,19=15,26=1,52=2,53=1023/20;
 3/11=9,16=1,25=1,30=1,41=9900000,43=2,71=1/1;
 4/16=2,20=17,22=1,23=100,24=3,113=1,114=2/2;
 7/7=1,30=1,33=-1,44=-1/16;
 1/14=-1,18=20,19=15,26=1,52=2,53=3015/20;
 7/9=1,44=-1/16;
 1/14=-1,18=20,19=15,26=1,52=2/3(-16);
 2/9=110,15=1/2;
 99//99;
 Leave Link    1 at Tue Feb  7 16:48:32 2017, MaxMem=  1048576000 cpu:         0.9
 (Enter /mnt/data/applications/G09/g09/l101.exe)
 --------------------------------------
 ONIOM(QM:MM) OPT FREQ with SICTWO V1.0
 --------------------------------------
 Symbolic Z-matrix:
 Charge =  0 Multiplicity = 1 for low   level calculation on real  system.
 Charge =  0 Multiplicity = 1 for high  level calculation on model system.
 Charge =  0 Multiplicity = 1 for low   level calculation on model system.
 C-C_2                0    -2.36842   0.38462   0.       H 
 C-C_3                0    -3.90842   0.38462   0.       H 
 H-H_                 0    -4.26509   0.88902  -0.87365  H 
 H-H_                 0    -4.26509  -0.62419   0.       H 
 H-H_                 0    -4.26509   0.88902   0.87365  H 
 C-C_3                0    -1.60106  -0.93573  -0.19863  H 
 H-H_                 0    -1.80801  -1.59492   0.61841  H 
 H-H_                 0    -1.91129  -1.39428  -1.11426  H 
 C-C_3                0    -0.08937  -0.64736  -0.25533  L    H-H_     6     0.        0. 
 C-C_3                0     0.67586  -1.96331  -0.48837  L 
 H-H_                 0     0.36701  -2.39585  -1.41704  L 
 H-H_                 0     1.72669  -1.7641   -0.51968  L 
 H-H_                 0     0.46557  -2.64432   0.3097   L 
 C-C_3                0     0.20411   0.3285   -1.40996  L 
 H-H_                 0    -0.61954   0.33093  -2.09296  L 
 H-H_                 0     0.34466   1.31382  -1.01718  L 
 H-H_                 0     1.09113   0.01876  -1.92199  L 
 N-N_2                0    -1.72384   1.49371   0.16685  H 
 C-C_3                0    -1.98204   2.92475   0.38212  H 
 H-H_                 0    -2.55823   3.30981  -0.43313  H 
 H-H_                 0    -2.52407   3.05596   1.2953   H 
 H-H_                 0    -1.05176   3.45013   0.4409   H 
 H-H_                 0     0.22537  -0.21071   0.66942  L 
 
 NAtoms=     23 NQM=       23 NQMF=       0 NMMI=      0 NMMIF=      0
                NMic=       0 NMicF=      0.
                    Isotopes and Nuclear Properties:
 (Nuclear quadrupole moments (NQMom) in fm**2, nuclear magnetic moments (NMagM)
  in nuclear magnetons)

  Atom         1           2           3           4           5           6           7           8           9          10
 IAtWgt=          12          12           1           1           1          12           1           1          12          12
 AtmWgt=  12.0000000  12.0000000   1.0078250   1.0078250   1.0078250  12.0000000   1.0078250   1.0078250  12.0000000  12.0000000
 NucSpn=           0           0           1           1           1           0           1           1           0           0
 AtZEff=   0.0000000   0.0000000   0.0000000   0.0000000   0.0000000   0.0000000   0.0000000   0.0000000   0.0000000   0.0000000
 NQMom=    0.0000000   0.0000000   0.0000000   0.0000000   0.0000000   0.0000000   0.0000000   0.0000000   0.0000000   0.0000000
 NMagM=    0.0000000   0.0000000   2.7928460   2.7928460   2.7928460   0.0000000   2.7928460   2.7928460   0.0000000   0.0000000
 AtZNuc=   6.0000000   6.0000000   1.0000000   1.0000000   1.0000000   6.0000000   1.0000000   1.0000000   6.0000000   6.0000000

  Atom        11          12          13          14          15          16          17          18          19          20
 IAtWgt=           1           1           1          12           1           1           1          14          12           1
 AtmWgt=   1.0078250   1.0078250   1.0078250  12.0000000   1.0078250   1.0078250   1.0078250  14.0030740  12.0000000   1.0078250
 NucSpn=           1           1           1           0           1           1           1           2           0           1
 AtZEff=   0.0000000   0.0000000   0.0000000   0.0000000   0.0000000   0.0000000   0.0000000   0.0000000   0.0000000   0.0000000
 NQMom=    0.0000000   0.0000000   0.0000000   0.0000000   0.0000000   0.0000000   0.0000000   2.0440000   0.0000000   0.0000000
 NMagM=    2.7928460   2.7928460   2.7928460   0.0000000   2.7928460   2.7928460   2.7928460   0.4037610   0.0000000   2.7928460
 AtZNuc=   1.0000000   1.0000000   1.0000000   6.0000000   1.0000000   1.0000000   1.0000000   7.0000000   6.0000000   1.0000000

  Atom        21          22          23
 IAtWgt=           1           1           1
 AtmWgt=   1.0078250   1.0078250   1.0078250
 NucSpn=           1           1           1
 AtZEff=   0.0000000   0.0000000   0.0000000
 NQMom=    0.0000000   0.0000000   0.0000000
 NMagM=    2.7928460   2.7928460   2.7928460
 AtZNuc=   1.0000000   1.0000000   1.0000000
 Leave Link  101 at Tue Feb  7 16:48:32 2017, MaxMem=  1048576000 cpu:         3.1
 (Enter /mnt/data/applications/G09/g09/l103.exe)

 GradGradGradGradGradGradGradGradGradGradGradGradGradGradGradGradGradGrad
 Berny optimization.
 Initialization pass.
                           ----------------------------
                           !    Initial Parameters    !
                           ! (Angstroms and Degrees)  !
 --------------------------                            --------------------------
 ! Name  Definition              Value          Derivative Info.                !
 --------------------------------------------------------------------------------
 ! R1    R(1,2)                  1.54           estimate D2E/DX2                !
 ! R2    R(1,6)                  1.54           estimate D2E/DX2                !
 ! R3    R(1,18)                 1.2936         estimate D2E/DX2                !
 ! R4    R(2,3)                  1.07           estimate D2E/DX2                !
 ! R5    R(2,4)                  1.07           estimate D2E/DX2                !
 ! R6    R(2,5)                  1.07           estimate D2E/DX2                !
 ! R7    R(6,7)                  1.07           estimate D2E/DX2                !
 ! R8    R(6,8)                  1.07           estimate D2E/DX2                !
 ! R9    R(6,9)                  1.54           estimate D2E/DX2                !
 ! R10   R(9,10)                 1.54           estimate D2E/DX2                !
 ! R11   R(9,14)                 1.54           estimate D2E/DX2                !
 ! R12   R(9,23)                 1.07           estimate D2E/DX2                !
 ! R13   R(10,11)                1.07           estimate D2E/DX2                !
 ! R14   R(10,12)                1.07           estimate D2E/DX2                !
 ! R15   R(10,13)                1.07           estimate D2E/DX2                !
 ! R16   R(14,15)                1.07           estimate D2E/DX2                !
 ! R17   R(14,16)                1.07           estimate D2E/DX2                !
 ! R18   R(14,17)                1.07           estimate D2E/DX2                !
 ! R19   R(18,19)                1.47           estimate D2E/DX2                !
 ! R20   R(19,20)                1.07           estimate D2E/DX2                !
 ! R21   R(19,21)                1.07           estimate D2E/DX2                !
 ! R22   R(19,22)                1.07           estimate D2E/DX2                !
 ! A1    A(2,1,6)              119.8865         estimate D2E/DX2                !
 ! A2    A(2,1,18)             119.8865         estimate D2E/DX2                !
 ! A3    A(6,1,18)             120.2269         estimate D2E/DX2                !
 ! A4    A(1,2,3)              109.4712         estimate D2E/DX2                !
 ! A5    A(1,2,4)              109.4712         estimate D2E/DX2                !
 ! A6    A(1,2,5)              109.4712         estimate D2E/DX2                !
 ! A7    A(3,2,4)              109.4713         estimate D2E/DX2                !
 ! A8    A(3,2,5)              109.4712         estimate D2E/DX2                !
 ! A9    A(4,2,5)              109.4712         estimate D2E/DX2                !
 ! A10   A(1,6,7)              109.4712         estimate D2E/DX2                !
 ! A11   A(1,6,8)              109.4712         estimate D2E/DX2                !
 ! A12   A(1,6,9)              109.4712         estimate D2E/DX2                !
 ! A13   A(7,6,8)              109.4713         estimate D2E/DX2                !
 ! A14   A(7,6,9)              109.4712         estimate D2E/DX2                !
 ! A15   A(8,6,9)              109.4712         estimate D2E/DX2                !
 ! A16   A(6,9,10)             109.4712         estimate D2E/DX2                !
 ! A17   A(6,9,14)             109.4712         estimate D2E/DX2                !
 ! A18   A(6,9,23)             109.4712         estimate D2E/DX2                !
 ! A19   A(10,9,14)            109.4713         estimate D2E/DX2                !
 ! A20   A(10,9,23)            109.4712         estimate D2E/DX2                !
 ! A21   A(14,9,23)            109.4712         estimate D2E/DX2                !
 ! A22   A(9,10,11)            109.4712         estimate D2E/DX2                !
 ! A23   A(9,10,12)            109.4712         estimate D2E/DX2                !
 ! A24   A(9,10,13)            109.4712         estimate D2E/DX2                !
 ! A25   A(11,10,12)           109.4713         estimate D2E/DX2                !
 ! A26   A(11,10,13)           109.4712         estimate D2E/DX2                !
 ! A27   A(12,10,13)           109.4712         estimate D2E/DX2                !
 ! A28   A(9,14,15)            109.4712         estimate D2E/DX2                !
 ! A29   A(9,14,16)            109.4712         estimate D2E/DX2                !
 ! A30   A(9,14,17)            109.4712         estimate D2E/DX2                !
 ! A31   A(15,14,16)           109.4713         estimate D2E/DX2                !
 ! A32   A(15,14,17)           109.4712         estimate D2E/DX2                !
 ! A33   A(16,14,17)           109.4712         estimate D2E/DX2                !
 ! A34   A(1,18,19)            139.9974         estimate D2E/DX2                !
 ! A35   A(18,19,20)           109.4712         estimate D2E/DX2                !
 ! A36   A(18,19,21)           109.4712         estimate D2E/DX2                !
 ! A37   A(18,19,22)           109.4712         estimate D2E/DX2                !
 ! A38   A(20,19,21)           109.4713         estimate D2E/DX2                !
 ! A39   A(20,19,22)           109.4712         estimate D2E/DX2                !
 ! A40   A(21,19,22)           109.4712         estimate D2E/DX2                !
 ! D1    D(6,1,2,3)           -111.4449         estimate D2E/DX2                !
 ! D2    D(6,1,2,4)              8.5551         estimate D2E/DX2                !
 ! D3    D(6,1,2,5)            128.5551         estimate D2E/DX2                !
 ! D4    D(18,1,2,3)            68.5551         estimate D2E/DX2                !
 ! D5    D(18,1,2,4)          -171.4449         estimate D2E/DX2                !
 ! D6    D(18,1,2,5)           -51.4449         estimate D2E/DX2                !
 ! D7    D(2,1,6,7)            -63.9088         estimate D2E/DX2                !
 ! D8    D(2,1,6,8)             56.0912         estimate D2E/DX2                !
 ! D9    D(2,1,6,9)            176.0912         estimate D2E/DX2                !
 ! D10   D(18,1,6,7)           116.0912         estimate D2E/DX2                !
 ! D11   D(18,1,6,8)          -123.9088         estimate D2E/DX2                !
 ! D12   D(18,1,6,9)            -3.9088         estimate D2E/DX2                !
 ! D13   D(2,1,18,19)            0.0            estimate D2E/DX2                !
 ! D14   D(6,1,18,19)          180.0            estimate D2E/DX2                !
 ! D15   D(1,6,9,10)          -178.6284         estimate D2E/DX2                !
 ! D16   D(1,6,9,14)           -58.6284         estimate D2E/DX2                !
 ! D17   D(1,6,9,23)            61.3716         estimate D2E/DX2                !
 ! D18   D(7,6,9,10)            61.3716         estimate D2E/DX2                !
 ! D19   D(7,6,9,14)          -178.6284         estimate D2E/DX2                !
 ! D20   D(7,6,9,23)           -58.6284         estimate D2E/DX2                !
 ! D21   D(8,6,9,10)           -58.6285         estimate D2E/DX2                !
 ! D22   D(8,6,9,14)            61.3716         estimate D2E/DX2                !
 ! D23   D(8,6,9,23)          -178.6284         estimate D2E/DX2                !
 ! D24   D(6,9,10,11)           60.4648         estimate D2E/DX2                !
 ! D25   D(6,9,10,12)         -179.5352         estimate D2E/DX2                !
 ! D26   D(6,9,10,13)          -59.5352         estimate D2E/DX2                !
 ! D27   D(14,9,10,11)         -59.5352         estimate D2E/DX2                !
 ! D28   D(14,9,10,12)          60.4648         estimate D2E/DX2                !
 ! D29   D(14,9,10,13)        -179.5352         estimate D2E/DX2                !
 ! D30   D(23,9,10,11)        -179.5352         estimate D2E/DX2                !
 ! D31   D(23,9,10,12)         -59.5352         estimate D2E/DX2                !
 ! D32   D(23,9,10,13)          60.4648         estimate D2E/DX2                !
 ! D33   D(6,9,14,15)          -18.5311         estimate D2E/DX2                !
 ! D34   D(6,9,14,16)          101.469          estimate D2E/DX2                !
 ! D35   D(6,9,14,17)         -138.531          estimate D2E/DX2                !
 ! D36   D(10,9,14,15)         101.4689         estimate D2E/DX2                !
 ! D37   D(10,9,14,16)        -138.5311         estimate D2E/DX2                !
 ! D38   D(10,9,14,17)         -18.5311         estimate D2E/DX2                !
 ! D39   D(23,9,14,15)        -138.5311         estimate D2E/DX2                !
 ! D40   D(23,9,14,16)         -18.531          estimate D2E/DX2                !
 ! D41   D(23,9,14,17)         101.469          estimate D2E/DX2                !
 ! D42   D(1,18,19,20)         -58.8621         estimate D2E/DX2                !
 ! D43   D(1,18,19,21)          61.1379         estimate D2E/DX2                !
 ! D44   D(1,18,19,22)        -178.8621         estimate D2E/DX2                !
 --------------------------------------------------------------------------------
 Trust Radius=3.00D-01 FncErr=1.00D-07 GrdErr=1.00D-07
 Number of steps in this run=    116 maximum allowed number of steps=    138.
 GradGradGradGradGradGradGradGradGradGradGradGradGradGradGradGradGradGrad

 Leave Link  103 at Tue Feb  7 16:48:32 2017, MaxMem=  1048576000 cpu:         0.1
 (Enter /mnt/data/applications/G09/g09/l202.exe)
                          Input orientation:                          
 ---------------------------------------------------------------------
 Center     Atomic      Atomic             Coordinates (Angstroms)
 Number     Number       Type             X           Y           Z
 ---------------------------------------------------------------------
      1          6    10061002       -2.368421    0.384615    0.000000
      2          6    10061003       -3.908421    0.384615    0.000000
      3          1    10011000       -4.265087    0.889018   -0.873651
      4          1    10011000       -4.265087   -0.624190    0.000000
      5          1    10011000       -4.265088    0.889018    0.873651
      6          6    10061003       -1.601064   -0.935730   -0.198625
      7          1    10011000       -1.808014   -1.594917    0.618408
      8          1    10011000       -1.911285   -1.394283   -1.114263
      9          6    10061003       -0.089366   -0.647364   -0.255334
     10          6    10061003        0.675861   -1.963313   -0.488370
     11          1    10011000        0.367010   -2.395848   -1.417039
     12          1    10011000        1.726686   -1.764103   -0.519683
     13          1    10011000        0.465569   -2.644317    0.309697
     14          6    10061003        0.204112    0.328496   -1.409963
     15          1    10011000       -0.619542    0.330934   -2.092963
     16          1    10011000        0.344661    1.313821   -1.017178
     17          1    10011000        1.091126    0.018765   -1.921990
     18          7    10071002       -1.723841    1.493705    0.166845
     19          6    10061003       -1.982036    2.924750    0.382123
     20          1    10011000       -2.558226    3.309809   -0.433128
     21          1    10011000       -2.524066    3.055958    1.295299
     22          1    10011000       -1.051756    3.450130    0.440899
     23          1    10011000        0.225375   -0.210711    0.669421
 ---------------------------------------------------------------------
                    Distance matrix (angstroms):
                    1          2          3          4          5
     1  C    0.000000
     2  C    1.540000   0.000000
     3  H    2.148263   1.070000   0.000000
     4  H    2.148263   1.070000   1.747303   0.000000
     5  H    2.148263   1.070000   1.747303   1.747303   0.000000
     6  C    1.540000   2.665832   3.298846   2.689522   3.402426
     7  H    2.148263   2.951726   3.799129   2.713291   3.503183
     8  H    2.148263   2.897346   3.288121   2.715697   3.834795
     9  C    2.514810   3.964260   4.492152   4.183584   4.590395
    10  C    3.875426   5.173675   5.718147   5.142443   5.865481
    11  H    4.149887   5.293230   5.704555   5.157819   6.123229
    12  H    4.653704   6.053222   6.562446   6.121342   6.699387
    13  H    4.159548   5.329365   6.021950   5.153245   5.931409
    14  C    2.934122   4.347881   4.536029   4.782191   5.050032
    15  H    2.727994   3.898731   3.884351   4.310773   4.733103
    16  H    3.042842   4.470658   4.631505   5.102972   5.000548
    17  H    3.974464   5.368740   5.526788   5.726820   6.104260
    18  N    1.293600   2.455668   2.811799   3.312288   2.706133
    19  C    2.597614   3.210804   3.306584   4.237136   3.098085
    20  H    2.963171   3.250751   2.994606   4.310142   3.237480
    21  H    2.972893   3.275715   3.525780   4.272288   2.811507
    22  H    3.365320   4.213349   4.314259   5.207684   4.131836
    23  H    2.744142   4.229752   4.873882   4.558875   4.627674
                    6          7          8          9         10
     6  C    0.000000
     7  H    1.070000   0.000000
     8  H    1.070000   1.747303   0.000000
     9  C    1.540000   2.148263   2.148263   0.000000
    10  C    2.514809   2.744141   2.721922   1.540000   0.000000
    11  H    2.736749   3.084683   2.507077   2.148263   1.070000
    12  H    3.444300   3.717255   3.704744   2.148263   1.070000
    13  H    2.729218   2.523039   3.039684   2.148263   1.070000
    14  C    2.514809   3.444192   2.744141   1.540000   2.514810
    15  H    2.481197   3.531700   2.367029   2.148263   3.084859
    16  H    3.084859   3.971135   3.525981   2.148263   3.336006
    17  H    3.336006   4.178829   3.415202   2.148263   2.481199
    18  N    2.459837   3.122592   3.164940   2.726522   4.258973
    19  C    3.922463   4.529184   4.571457   4.092500   5.631638
    20  H    4.358411   5.071970   4.796973   4.667558   6.186128
    21  H    4.360884   4.754108   5.097659   4.695404   6.214023
    22  H    4.466150   5.104501   5.160005   4.266191   5.757913
    23  H    2.148263   2.460345   3.024514   1.070000   2.148263
                   11         12         13         14         15
    11  H    0.000000
    12  H    1.747303   0.000000
    13  H    1.747303   1.747303   0.000000
    14  C    2.729219   2.736750   3.444301   0.000000
    15  H    2.977499   3.516984   3.975218   1.070000   0.000000
    16  H    3.731224   3.410441   4.176371   1.070000   1.747303
    17  H    2.570929   2.355635   3.530404   1.070000   1.747303
    18  N    4.691372   4.794869   4.683711   2.749734   2.770965
    19  C    6.088002   6.045926   6.083628   3.838145   3.835404
    20  H    6.486879   6.641727   6.719132   4.180065   3.922657
    21  H    6.740718   6.678026   6.511717   4.711734   4.746923
    22  H    6.296053   5.985873   6.281860   3.840246   4.041862
    23  H    3.024599   2.465955   2.471747   2.148263   2.939052
                   16         17         18         19         20
    16  H    0.000000
    17  H    1.747303   0.000000
    18  N    2.390182   3.802989   0.000000
    19  C    3.157002   4.816433   1.470000   0.000000
    20  H    3.570971   5.134730   2.086720   1.070000   0.000000
    21  H    4.075804   5.713589   2.086720   1.070000   1.747303
    22  H    2.939351   4.685025   2.086720   1.070000   1.747303
    23  H    2.276629   2.741824   2.637623   3.845298   4.621483
                   21         22         23
    21  H    0.000000
    22  H    1.747303   0.000000
    23  H    4.315352   3.883946   0.000000
 Symmetry turned off by external request.
 Stoichiometry    C7H15N
 Framework group  C1[X(C7H15N)]
 Deg. of freedom    63
 Full point group                 C1      NOp   1
 Rotational constants (GHZ):      3.1029852      1.2406666      0.9772208
 Leave Link  202 at Tue Feb  7 16:48:33 2017, MaxMem=  1048576000 cpu:         0.0
 (Enter /mnt/data/applications/G09/g09/l120.exe)
 ONIOM: Cut between C /H     9 and C     6 factor= 0.723886 0.723886
 ONIOM: saving gridpoint 17
 ONIOM: generating point  3 -- low level on real system.
 Leave Link  120 at Tue Feb  7 16:48:33 2017, MaxMem=  1048576000 cpu:         0.0
 (Enter /mnt/data/applications/G09/g09/l301.exe)
 Standard basis: STO-3G (5D, 7F)
 Ernie: Thresh=  0.10000D-02 Tol=  0.10000D-05 Strict=F.
    55 basis functions,   165 primitive gaussians,    55 cartesian basis functions
    32 alpha electrons       32 beta electrons
       nuclear repulsion energy       392.4470218984 Hartrees.
 IExCor=    0 DFT=F Ex=HF Corr=None ExCW=0 ScaHFX=  1.000000
 ScaDFX=  1.000000  1.000000  1.000000  1.000000 ScalE2=  1.000000  1.000000
 IRadAn=      0 IRanWt=     -1 IRanGd=            0 ICorTp=0 IEmpDi=  4
 NAtoms=   23 NActive=   23 NUniq=   23 SFac= 1.00D+00 NAtFMM=   60 NAOKFM=F Big=F
 Integral buffers will be    131072 words long.
 Raffenetti 1 integral format.
 Two-electron integral symmetry is turned off.
 Leave Link  301 at Tue Feb  7 16:48:33 2017, MaxMem=  1048576000 cpu:         0.4
 (Enter /mnt/data/applications/G09/g09/l402.exe)
 External calculation of energy and first derivatives.
 Running external command "./sictwo_files/sictwo_g09d01 R"
         input file       "/scratch/Gau-22774.EIn"
         output file      "/scratch/Gau-22774.EOu"
         message file     "/scratch/Gau-22774.EMs"
         fchk file        "/scratch/Gau-22774.EFC"
         mat. el file     "/scratch/Gau-22774.EUF"

---------------------------- SICTWO Version 1.0 STARTED -----------------------------

MM calculations started
MM calculations finished ....
Information recovery

---------------------------- SICTWO Version 1.0 FINISHED -----------------------------

 Recovered energy= 0.640861861347E-01 dipole=     -0.757353410275     -0.430019364899     -0.064522576252
 Energy=    6.408618613E-02 NIter=   0.
 Dipole moment=      -0.757353      -0.430019      -0.064523
 Leave Link  402 at Tue Feb  7 16:48:36 2017, MaxMem=  1048576000 cpu:        25.2
 (Enter /mnt/data/applications/G09/g09/l601.exe)
 Leave Link  601 at Tue Feb  7 16:48:37 2017, MaxMem=  1048576000 cpu:         0.2
 (Enter /mnt/data/applications/G09/g09/l716.exe)
 Dipole        =-7.57353410D-01-4.30019365D-01-6.45225763D-02
 Cartesian Forces:  Max     0.045278977 RMS     0.013288931
 Leave Link  716 at Tue Feb  7 16:48:37 2017, MaxMem=  1048576000 cpu:         0.2
 (Enter /mnt/data/applications/G09/g09/l120.exe)
 SvSCFP did not find density file   528.
 ONIOM: saving gridpoint  3
 ONIOM: restoring gridpoint 17
 ONIOM: generating point  2 -- high level on model system.
 Leave Link  120 at Tue Feb  7 16:48:37 2017, MaxMem=  1048576000 cpu:         0.0
 (Enter /mnt/data/applications/G09/g09/l301.exe)
 Standard basis: 6-31G(d) (6D, 7F)
 Ernie: Thresh=  0.10000D-02 Tol=  0.10000D-05 Strict=F.
    93 basis functions,   176 primitive gaussians,    93 cartesian basis functions
    20 alpha electrons       20 beta electrons
       nuclear repulsion energy       174.1253855048 Hartrees.
 IExCor=  402 DFT=T Ex+Corr=B3LYP ExCW=0 ScaHFX=  0.200000
 ScaDFX=  0.800000  0.720000  1.000000  0.810000 ScalE2=  1.000000  1.000000
 IRadAn=      0 IRanWt=     -1 IRanGd=            0 ICorTp=0 IEmpDi=  4
 NAtoms=   23 NActive=   14 NUniq=   14 SFac= 1.00D+00 NAtFMM=   60 NAOKFM=F Big=F
 Integral buffers will be    131072 words long.
 Raffenetti 2 integral format.
 Two-electron integral symmetry is turned off.
 Leave Link  301 at Tue Feb  7 16:48:37 2017, MaxMem=  1048576000 cpu:         0.3
 (Enter /mnt/data/applications/G09/g09/l302.exe)
 NPDir=0 NMtPBC=     1 NCelOv=     1 NCel=       1 NClECP=     1 NCelD=      1
         NCelK=      1 NCelE2=     1 NClLst=     1 CellRange=     0.0.
 One-electron integrals computed using PRISM.
 NBasis=    93 RedAO= T EigKep=  3.94D-03  NBF=    93
 NBsUse=    93 1.00D-06 EigRej= -1.00D+00 NBFU=    93
 Precomputing XC quadrature grid using
 IXCGrd= 4 IRadAn=           0 IRanWt=          -1 IRanGd=           0 AccXCQ= 0.00D+00.
 Generated NRdTot=       0 NPtTot=           0 NUsed=           0 NTot=          32
 NSgBfM=    93    93    93    93    93 MxSgAt=    14 MxSgA2=    14.
 Leave Link  302 at Tue Feb  7 16:48:37 2017, MaxMem=  1048576000 cpu:         1.7
 (Enter /mnt/data/applications/G09/g09/l303.exe)
 DipDrv:  MaxL=1.
 Leave Link  303 at Tue Feb  7 16:48:37 2017, MaxMem=  1048576000 cpu:         0.3
 (Enter /mnt/data/applications/G09/g09/l401.exe)
 ExpMin= 1.61D-01 ExpMax= 4.17D+03 ExpMxC= 6.27D+02 IAcc=1 IRadAn=         1 AccDes= 0.00D+00
 Harris functional with IExCor=  402 and IRadAn=       1 diagonalized for initial guess.
 HarFok:  IExCor=  402 AccDes= 0.00D+00 IRadAn=         1 IDoV= 1 UseB2=F ITyADJ=14
 ICtDFT=  3500011 ScaDFX=  1.000000  1.000000  1.000000  1.000000
 FoFCou: FMM=F IPFlag=           0 FMFlag=      100000 FMFlg1=           0
         NFxFlg=           0 DoJE=T BraDBF=F KetDBF=T FulRan=T
         wScrn=  0.000000 ICntrl=     500 IOpCl=  0 I1Cent=   200000004 NGrid=           0
         NMat0=    1 NMatS0=      1 NMatT0=    0 NMatD0=    1 NMtDS0=    0 NMtDT0=    0
 Symmetry not used in FoFCou.
 Harris En= -212.616254200406    
 JPrj=0 DoOrth=F DoCkMO=F.
 Leave Link  401 at Tue Feb  7 16:48:38 2017, MaxMem=  1048576000 cpu:         2.3
 (Enter /mnt/data/applications/G09/g09/l502.exe)
 Closed shell SCF:
 Using DIIS extrapolation, IDIIS=  1040.
 Two-electron integral symmetry not used.
 Keep R1 ints in memory in canonical form, NReq=10510157.
 IVT=       39321 IEndB=       39321 NGot=  1048576000 MDV=  1038981674
 LenX=  1038981674 LenY=  1038972584
 Requested convergence on RMS density matrix=1.00D-08 within 100 cycles.
 Requested convergence on MAX density matrix=1.00D-06.
 Requested convergence on             energy=1.00D-06.
 No special actions if energy rises.
 FoFCou: FMM=F IPFlag=           0 FMFlag=           0 FMFlg1=           0
         NFxFlg=           0 DoJE=F BraDBF=F KetDBF=F FulRan=T
         wScrn=  0.000000 ICntrl=     600 IOpCl=  0 I1Cent=           0 NGrid=           0
         NMat0=    1 NMatS0=   4371 NMatT0=    0 NMatD0=    1 NMtDS0=    0 NMtDT0=    0
 Symmetry not used in FoFCou.
 Integral accuracy reduced to 1.0D-05 until final iterations.

 Cycle   1  Pass 0  IDiag  1:
 E= -212.368487241768    
 DIIS: error= 5.72D-02 at cycle   1 NSaved=   1.
 NSaved= 1 IEnMin= 1 EnMin= -212.368487241768     IErMin= 1 ErrMin= 5.72D-02
 ErrMax= 5.72D-02  0.00D+00 EMaxC= 1.00D-01 BMatC= 1.81D-01 BMatP= 1.81D-01
 IDIUse=3 WtCom= 4.28D-01 WtEn= 5.72D-01
 Coeff-Com:  0.100D+01
 Coeff-En:   0.100D+01
 Coeff:      0.100D+01
 Gap=     0.158 Goal=   None    Shift=    0.000
 GapD=    0.158 DampG=1.000 DampE=0.500 DampFc=0.5000 IDamp=-1.
 Damping current iteration by 5.00D-01
 RMSDP=1.04D-02 MaxDP=1.36D-01              OVMax= 1.91D-01

 Cycle   2  Pass 0  IDiag  1:
 E= -212.456429819703     Delta-E=       -0.087942577935 Rises=F Damp=T
 DIIS: error= 8.53D-03 at cycle   2 NSaved=   2.
 NSaved= 2 IEnMin= 2 EnMin= -212.456429819703     IErMin= 2 ErrMin= 8.53D-03
 ErrMax= 8.53D-03  0.00D+00 EMaxC= 1.00D-01 BMatC= 9.26D-03 BMatP= 1.81D-01
 IDIUse=3 WtCom= 9.15D-01 WtEn= 8.53D-02
 Coeff-Com:  0.600D-01 0.940D+00
 Coeff-En:   0.787D-01 0.921D+00
 Coeff:      0.616D-01 0.938D+00
 Gap=     0.215 Goal=   None    Shift=    0.000
 RMSDP=2.26D-03 MaxDP=4.03D-02 DE=-8.79D-02 OVMax= 1.62D-01

 Cycle   3  Pass 0  IDiag  1:
 E= -212.548240544525     Delta-E=       -0.091810724821 Rises=F Damp=F
 DIIS: error= 1.04D-02 at cycle   3 NSaved=   3.
 NSaved= 3 IEnMin= 3 EnMin= -212.548240544525     IErMin= 2 ErrMin= 8.53D-03
 ErrMax= 1.04D-02  0.00D+00 EMaxC= 1.00D-01 BMatC= 1.25D-02 BMatP= 9.26D-03
 IDIUse=2 WtCom= 0.00D+00 WtEn= 1.00D+00
 Coeff-En:   0.000D+00 0.000D+00 0.100D+01
 Coeff:      0.000D+00 0.000D+00 0.100D+01
 Gap=     0.176 Goal=   None    Shift=    0.000
 RMSDP=3.33D-03 MaxDP=8.53D-02 DE=-9.18D-02 OVMax= 1.71D-01

 Cycle   4  Pass 0  IDiag  1:
 E= -212.501718589463     Delta-E=        0.046521955062 Rises=F Damp=F
 DIIS: error= 2.63D-02 at cycle   4 NSaved=   4.
 NSaved= 4 IEnMin= 3 EnMin= -212.548240544525     IErMin= 2 ErrMin= 8.53D-03
 ErrMax= 2.63D-02  0.00D+00 EMaxC= 1.00D-01 BMatC= 6.38D-02 BMatP= 9.26D-03
 IDIUse=2 WtCom= 0.00D+00 WtEn= 1.00D+00
 Coeff-En:   0.000D+00 0.000D+00 0.780D+00 0.220D+00
 Coeff:      0.000D+00 0.000D+00 0.780D+00 0.220D+00
 Gap=     0.199 Goal=   None    Shift=    0.000
 RMSDP=1.77D-03 MaxDP=4.16D-02 DE= 4.65D-02 OVMax= 8.61D-02

 Cycle   5  Pass 0  IDiag  1:
 E= -212.555310366781     Delta-E=       -0.053591777318 Rises=F Damp=F
 DIIS: error= 6.80D-03 at cycle   5 NSaved=   5.
 NSaved= 5 IEnMin= 5 EnMin= -212.555310366781     IErMin= 5 ErrMin= 6.80D-03
 ErrMax= 6.80D-03  0.00D+00 EMaxC= 1.00D-01 BMatC= 4.79D-03 BMatP= 9.26D-03
 IDIUse=3 WtCom= 9.32D-01 WtEn= 6.80D-02
 Coeff-Com: -0.189D-02 0.117D-01 0.252D+00-0.131D+00 0.869D+00
 Coeff-En:   0.000D+00 0.000D+00 0.325D+00 0.000D+00 0.675D+00
 Coeff:     -0.176D-02 0.109D-01 0.257D+00-0.122D+00 0.856D+00
 Gap=     0.209 Goal=   None    Shift=    0.000
 RMSDP=6.22D-04 MaxDP=1.66D-02 DE=-5.36D-02 OVMax= 3.20D-02

 Cycle   6  Pass 0  IDiag  1:
 E= -212.559611480258     Delta-E=       -0.004301113477 Rises=F Damp=F
 DIIS: error= 9.65D-05 at cycle   6 NSaved=   6.
 NSaved= 6 IEnMin= 6 EnMin= -212.559611480258     IErMin= 6 ErrMin= 9.65D-05
 ErrMax= 9.65D-05  0.00D+00 EMaxC= 1.00D-01 BMatC= 1.68D-06 BMatP= 4.79D-03
 IDIUse=1 WtCom= 1.00D+00 WtEn= 0.00D+00
 Coeff-Com: -0.545D-03 0.143D-02 0.816D-01-0.444D-01 0.299D+00 0.663D+00
 Coeff:     -0.545D-03 0.143D-02 0.816D-01-0.444D-01 0.299D+00 0.663D+00
 Gap=     0.209 Goal=   None    Shift=    0.000
 RMSDP=1.50D-05 MaxDP=3.63D-04 DE=-4.30D-03 OVMax= 4.47D-04

 Cycle   7  Pass 0  IDiag  1:
 E= -212.559612678581     Delta-E=       -0.000001198323 Rises=F Damp=F
 DIIS: error= 3.93D-05 at cycle   7 NSaved=   7.
 NSaved= 7 IEnMin= 7 EnMin= -212.559612678581     IErMin= 7 ErrMin= 3.93D-05
 ErrMax= 3.93D-05  0.00D+00 EMaxC= 1.00D-01 BMatC= 2.12D-07 BMatP= 1.68D-06
 IDIUse=1 WtCom= 1.00D+00 WtEn= 0.00D+00
 Coeff-Com: -0.369D-04-0.194D-03 0.233D-01-0.122D-01 0.844D-01 0.338D+00
 Coeff-Com:  0.566D+00
 Coeff:     -0.369D-04-0.194D-03 0.233D-01-0.122D-01 0.844D-01 0.338D+00
 Coeff:      0.566D+00
 Gap=     0.209 Goal=   None    Shift=    0.000
 RMSDP=6.55D-06 MaxDP=7.84D-05 DE=-1.20D-06 OVMax= 1.10D-04

 Initial convergence to 1.0D-05 achieved.  Increase integral accuracy.
 Cycle   8  Pass 1  IDiag  1:
 E= -212.559594425571     Delta-E=        0.000018253010 Rises=F Damp=F
 DIIS: error= 8.99D-06 at cycle   1 NSaved=   1.
 NSaved= 1 IEnMin= 1 EnMin= -212.559594425571     IErMin= 1 ErrMin= 8.99D-06
 ErrMax= 8.99D-06  0.00D+00 EMaxC= 1.00D-01 BMatC= 1.74D-08 BMatP= 1.74D-08
 IDIUse=1 WtCom= 1.00D+00 WtEn= 0.00D+00
 Coeff-Com:  0.100D+01
 Coeff:      0.100D+01
 Gap=     0.209 Goal=   None    Shift=    0.000
 RMSDP=6.55D-06 MaxDP=7.84D-05 DE= 1.83D-05 OVMax= 1.04D-04

 Cycle   9  Pass 1  IDiag  1:
 E= -212.559594427597     Delta-E=       -0.000000002026 Rises=F Damp=F
 DIIS: error= 1.42D-05 at cycle   2 NSaved=   2.
 NSaved= 2 IEnMin= 2 EnMin= -212.559594427597     IErMin= 1 ErrMin= 8.99D-06
 ErrMax= 1.42D-05  0.00D+00 EMaxC= 1.00D-01 BMatC= 2.57D-08 BMatP= 1.74D-08
 IDIUse=1 WtCom= 1.00D+00 WtEn= 0.00D+00
 Coeff-Com:  0.563D+00 0.437D+00
 Coeff:      0.563D+00 0.437D+00
 Gap=     0.209 Goal=   None    Shift=    0.000
 RMSDP=1.94D-06 MaxDP=5.45D-05 DE=-2.03D-09 OVMax= 1.05D-04

 Cycle  10  Pass 1  IDiag  1:
 E= -212.559594447124     Delta-E=       -0.000000019527 Rises=F Damp=F
 DIIS: error= 6.60D-06 at cycle   3 NSaved=   3.
 NSaved= 3 IEnMin= 3 EnMin= -212.559594447124     IErMin= 3 ErrMin= 6.60D-06
 ErrMax= 6.60D-06  0.00D+00 EMaxC= 1.00D-01 BMatC= 4.35D-09 BMatP= 1.74D-08
 IDIUse=1 WtCom= 1.00D+00 WtEn= 0.00D+00
 Coeff-Com:  0.109D-01 0.287D+00 0.702D+00
 Coeff:      0.109D-01 0.287D+00 0.702D+00
 Gap=     0.209 Goal=   None    Shift=    0.000
 RMSDP=7.84D-07 MaxDP=1.63D-05 DE=-1.95D-08 OVMax= 3.12D-05

 Cycle  11  Pass 1  IDiag  1:
 E= -212.559594450840     Delta-E=       -0.000000003716 Rises=F Damp=F
 DIIS: error= 1.26D-06 at cycle   4 NSaved=   4.
 NSaved= 4 IEnMin= 4 EnMin= -212.559594450840     IErMin= 4 ErrMin= 1.26D-06
 ErrMax= 1.26D-06  0.00D+00 EMaxC= 1.00D-01 BMatC= 2.26D-10 BMatP= 4.35D-09
 IDIUse=1 WtCom= 1.00D+00 WtEn= 0.00D+00
 Coeff-Com: -0.167D-01 0.135D+00 0.372D+00 0.509D+00
 Coeff:     -0.167D-01 0.135D+00 0.372D+00 0.509D+00
 Gap=     0.209 Goal=   None    Shift=    0.000
 RMSDP=1.89D-07 MaxDP=2.83D-06 DE=-3.72D-09 OVMax= 3.20D-06

 Cycle  12  Pass 1  IDiag  1:
 E= -212.559594451054     Delta-E=       -0.000000000214 Rises=F Damp=F
 DIIS: error= 1.45D-07 at cycle   5 NSaved=   5.
 NSaved= 5 IEnMin= 5 EnMin= -212.559594451054     IErMin= 5 ErrMin= 1.45D-07
 ErrMax= 1.45D-07  0.00D+00 EMaxC= 1.00D-01 BMatC= 4.91D-12 BMatP= 2.26D-10
 IDIUse=1 WtCom= 1.00D+00 WtEn= 0.00D+00
 Coeff-Com: -0.669D-02 0.363D-01 0.100D+00 0.193D+00 0.677D+00
 Coeff:     -0.669D-02 0.363D-01 0.100D+00 0.193D+00 0.677D+00
 Gap=     0.209 Goal=   None    Shift=    0.000
 RMSDP=3.04D-08 MaxDP=5.13D-07 DE=-2.14D-10 OVMax= 6.32D-07

 Cycle  13  Pass 1  IDiag  1:
 E= -212.559594451057     Delta-E=       -0.000000000003 Rises=F Damp=F
 DIIS: error= 5.11D-08 at cycle   6 NSaved=   6.
 NSaved= 6 IEnMin= 6 EnMin= -212.559594451057     IErMin= 6 ErrMin= 5.11D-08
 ErrMax= 5.11D-08  0.00D+00 EMaxC= 1.00D-01 BMatC= 2.03D-13 BMatP= 4.91D-12
 IDIUse=1 WtCom= 1.00D+00 WtEn= 0.00D+00
 Coeff-Com: -0.117D-02 0.497D-02 0.108D-01 0.330D-01 0.186D+00 0.766D+00
 Coeff:     -0.117D-02 0.497D-02 0.108D-01 0.330D-01 0.186D+00 0.766D+00
 Gap=     0.209 Goal=   None    Shift=    0.000
 RMSDP=8.42D-09 MaxDP=9.22D-08 DE=-2.79D-12 OVMax= 1.71D-07

 SCF Done:  E(RB3LYP) =  -212.559594451     A.U. after   13 cycles
            NFock= 13  Conv=0.84D-08     -V/T= 2.0098
 KE= 2.104913847477D+02 PE=-8.405826382979D+02 EE= 2.434062735944D+02
 Leave Link  502 at Tue Feb  7 16:48:40 2017, MaxMem=  1048576000 cpu:        20.0
 (Enter /mnt/data/applications/G09/g09/l601.exe)
 Copying SCF densities to generalized density rwf, IOpCl= 0 IROHF=0.

 **********************************************************************

            Population analysis using the SCF density.

 **********************************************************************

 Alpha  occ. eigenvalues --  -14.29690 -10.23104 -10.19986 -10.17486 -10.17274
 Alpha  occ. eigenvalues --   -0.88137  -0.75455  -0.69739  -0.67441  -0.50958
 Alpha  occ. eigenvalues --   -0.45192  -0.44472  -0.43689  -0.41845  -0.40187
 Alpha  occ. eigenvalues --   -0.40129  -0.37884  -0.35599  -0.26333  -0.19337
 Alpha virt. eigenvalues --    0.01592   0.09701   0.13092   0.15242   0.15385
 Alpha virt. eigenvalues --    0.16241   0.17452   0.18335   0.18840   0.19599
 Alpha virt. eigenvalues --    0.22496   0.23694   0.29050   0.40892   0.46526
 Alpha virt. eigenvalues --    0.50515   0.53794   0.54893   0.57645   0.59248
 Alpha virt. eigenvalues --    0.60522   0.68270   0.70506   0.71235   0.74627
 Alpha virt. eigenvalues --    0.79011   0.82531   0.84052   0.85954   0.88212
 Alpha virt. eigenvalues --    0.91153   0.91840   0.92151   0.93348   0.95094
 Alpha virt. eigenvalues --    0.96684   0.97141   1.01236   1.11781   1.20493
 Alpha virt. eigenvalues --    1.35091   1.38484   1.39751   1.40991   1.52563
 Alpha virt. eigenvalues --    1.59377   1.73015   1.77828   1.81023   1.88499
 Alpha virt. eigenvalues --    1.88984   1.94333   2.02507   2.10352   2.11836
 Alpha virt. eigenvalues --    2.18935   2.19292   2.21188   2.28980   2.29283
 Alpha virt. eigenvalues --    2.34767   2.38535   2.46323   2.48798   2.62673
 Alpha virt. eigenvalues --    2.67213   2.89482   3.10842   3.91674   4.11228
 Alpha virt. eigenvalues --    4.26851   4.32523   4.47323
          Condensed to atoms (all electrons):
               1          2          3          4          5          6
     1  C    4.606981   0.326471  -0.023459  -0.022688  -0.023524   0.347434
     2  C    0.326471   5.287908   0.371158   0.347522   0.373739  -0.104367
     3  H   -0.023459   0.371158   0.537375  -0.028629  -0.026481   0.002578
     4  H   -0.022688   0.347522  -0.028629   0.576338  -0.029018   0.001220
     5  H   -0.023524   0.373739  -0.026481  -0.029018   0.538098   0.003126
     6  C    0.347434  -0.104367   0.002578   0.001220   0.003126   5.234272
     7  H   -0.027220   0.003048  -0.000062   0.000782   0.000006   0.360751
     8  H   -0.029763   0.004025   0.000270  -0.000197  -0.000008   0.360610
     9  H   -0.020411   0.006057  -0.000150  -0.000185  -0.000134   0.344953
    10  N    0.660098  -0.098650  -0.004246   0.006225  -0.006340  -0.065314
    11  C   -0.069133  -0.012645   0.001004   0.000221   0.001718   0.008186
    12  H   -0.001607   0.003819   0.001673  -0.000125  -0.000705  -0.000480
    13  H   -0.001423   0.003689  -0.000568  -0.000102   0.002453  -0.000474
    14  H    0.001586  -0.000411  -0.000004   0.000007  -0.000024   0.000138
               7          8          9         10         11         12
     1  C   -0.027220  -0.029763  -0.020411   0.660098  -0.069133  -0.001607
     2  C    0.003048   0.004025   0.006057  -0.098650  -0.012645   0.003819
     3  H   -0.000062   0.000270  -0.000150  -0.004246   0.001004   0.001673
     4  H    0.000782  -0.000197  -0.000185   0.006225   0.000221  -0.000125
     5  H    0.000006  -0.000008  -0.000134  -0.006340   0.001718  -0.000705
     6  C    0.360751   0.360610   0.344953  -0.065314   0.008186  -0.000480
     7  H    0.557833  -0.033216  -0.022088  -0.000193  -0.000192  -0.000005
     8  H   -0.033216   0.562818  -0.022571   0.000391  -0.000195   0.000038
     9  H   -0.022088  -0.022571   0.537037   0.009193  -0.000455   0.000056
    10  N   -0.000193   0.000391   0.009193   6.734230   0.288010  -0.032093
    11  C   -0.000192  -0.000195  -0.000455   0.288010   4.983773   0.350944
    12  H   -0.000005   0.000038   0.000056  -0.032093   0.350944   0.592942
    13  H    0.000043  -0.000004   0.000049  -0.031945   0.350288  -0.021915
    14  H   -0.000001  -0.000001  -0.000105  -0.052025   0.406522  -0.043314
              13         14
     1  C   -0.001423   0.001586
     2  C    0.003689  -0.000411
     3  H   -0.000568  -0.000004
     4  H   -0.000102   0.000007
     5  H    0.002453  -0.000024
     6  C   -0.000474   0.000138
     7  H    0.000043  -0.000001
     8  H   -0.000004  -0.000001
     9  H    0.000049  -0.000105
    10  N   -0.031945  -0.052025
    11  C    0.350288   0.406522
    12  H   -0.021915  -0.043314
    13  H    0.591542  -0.042895
    14  H   -0.042895   0.562173
 Mulliken charges:
               1
     1  C    0.276659
     2  C   -0.511361
     3  H    0.169542
     4  H    0.148630
     5  H    0.167093
     6  C   -0.492634
     7  H    0.160515
     8  H    0.157803
     9  H    0.168755
    10  C    0.000000
    11  H    0.000000
    12  H    0.000000
    13  H    0.000000
    14  C    0.000000
    15  H    0.000000
    16  H    0.000000
    17  H    0.000000
    18  N   -0.407342
    19  C   -0.308047
    20  H    0.150771
    21  H    0.151262
    22  H    0.168354
    23  H    0.000000
 Sum of Mulliken charges =   0.00000
 Mulliken charges with hydrogens summed into heavy atoms:
               1
     1  C    0.276659
     2  C   -0.026097
     6  C   -0.005561
    10  C    0.000000
    14  C    0.000000
    18  N   -0.407342
    19  C    0.162341
 Electronic spatial extent (au):  <R**2>=           1424.1672
 Charge=              0.0000 electrons
 Dipole moment (field-independent basis, Debye):
    X=             -1.4024    Y=             -0.0920    Z=             -0.0218  Tot=              1.4056
 Quadrupole moment (field-independent basis, Debye-Ang):
   XX=            -26.9129   YY=            -28.8848   ZZ=            -31.8104
   XY=             -1.4088   XZ=             -0.0694   YZ=              0.4497
 Traceless Quadrupole moment (field-independent basis, Debye-Ang):
   XX=              2.2898   YY=              0.3179   ZZ=             -2.6077
   XY=             -1.4088   XZ=             -0.0694   YZ=              0.4497
 Octapole moment (field-independent basis, Debye-Ang**2):
  XXX=            214.1222  YYY=            -68.7617  ZZZ=             -6.6137  XYY=             68.1944
  XXY=            -21.1598  XXZ=             -2.0595  XZZ=             73.7660  YZZ=            -26.5295
  YYZ=             -0.3725  XYZ=             -0.8148
 Hexadecapole moment (field-independent basis, Debye-Ang**3):
 XXXX=          -1268.7407 YYYY=           -535.2840 ZZZZ=            -59.6822 XXXY=            164.2429
 XXXZ=             14.3439 YYYX=            164.4333 YYYZ=            -30.8395 ZZZX=             14.0942
 ZZZY=            -33.2285 XXYY=           -291.1909 XXZZ=           -216.8692 YYZZ=           -101.6717
 XXYZ=             -9.9997 YYXZ=              2.4901 ZZXY=             57.4266
 N-N= 1.741253855048D+02 E-N=-8.405826344025D+02  KE= 2.104913847477D+02
 No NMR shielding tensors so no spin-rotation constants.
 Leave Link  601 at Tue Feb  7 16:48:40 2017, MaxMem=  1048576000 cpu:         1.1
 (Enter /mnt/data/applications/G09/g09/l701.exe)
 Compute integral first derivatives.
 ... and contract with generalized density number  0.
 Leave Link  701 at Tue Feb  7 16:48:41 2017, MaxMem=  1048576000 cpu:         1.2
 (Enter /mnt/data/applications/G09/g09/l702.exe)
 L702 exits ... SP integral derivatives will be done elsewhere.
 Leave Link  702 at Tue Feb  7 16:48:41 2017, MaxMem=  1048576000 cpu:         0.2
 (Enter /mnt/data/applications/G09/g09/l703.exe)
 Compute integral first derivatives, UseDBF=F ICtDFT=           0.
 Integral derivatives from FoFJK, PRISM(SPDF).
 Calling FoFJK, ICntrl=      2127 FMM=F ISym2X=0 I1Cent= 0 IOpClX= 0 NMat=1 NMatS=1 NMatT=0.
 FoFJK:  IHMeth= 1 ICntrl=    2127 DoSepK=F KAlg= 0 I1Cent=   0 FoldK=F
 IRaf=         0 NMat=   1 IRICut=       1 DoRegI=T DoRafI=F ISym2E= 0.
 FoFCou: FMM=F IPFlag=           0 FMFlag=      100000 FMFlg1=         800
         NFxFlg=           0 DoJE=F BraDBF=F KetDBF=F FulRan=T
         wScrn=  0.000000 ICntrl=    2127 IOpCl=  0 I1Cent=           0 NGrid=           0
         NMat0=    1 NMatS0=      1 NMatT0=    0 NMatD0=    1 NMtDS0=    0 NMtDT0=    0
 Symmetry not used in FoFCou.
 Leave Link  703 at Tue Feb  7 16:48:42 2017, MaxMem=  1048576000 cpu:         6.6
 (Enter /mnt/data/applications/G09/g09/l716.exe)
 Dipole        =-5.51756614D-01-3.61796336D-02-8.57789553D-03
 Cartesian Forces:  Max     0.056860090 RMS     0.014290996
 Leave Link  716 at Tue Feb  7 16:48:42 2017, MaxMem=  1048576000 cpu:         0.2
 (Enter /mnt/data/applications/G09/g09/l120.exe)
 SvSCFP is copying densities from files   528 and   530 to   603.
 ONIOM: saving gridpoint  2
 ONIOM: restoring gridpoint 17
 ONIOM: generating point  1 -- low level on model system.
 Leave Link  120 at Tue Feb  7 16:48:42 2017, MaxMem=  1048576000 cpu:         0.2
 (Enter /mnt/data/applications/G09/g09/l301.exe)
 Standard basis: STO-3G (5D, 7F)
 Ernie: Thresh=  0.10000D-02 Tol=  0.10000D-05 Strict=F.
    34 basis functions,   102 primitive gaussians,    34 cartesian basis functions
    20 alpha electrons       20 beta electrons
       nuclear repulsion energy       174.1253855048 Hartrees.
 IExCor=    0 DFT=F Ex=HF Corr=None ExCW=0 ScaHFX=  1.000000
 ScaDFX=  1.000000  1.000000  1.000000  1.000000 ScalE2=  1.000000  1.000000
 IRadAn=      0 IRanWt=     -1 IRanGd=            0 ICorTp=0 IEmpDi=  4
 NAtoms=   23 NActive=   14 NUniq=   14 SFac= 1.00D+00 NAtFMM=   60 NAOKFM=F Big=F
 Integral buffers will be    131072 words long.
 Raffenetti 1 integral format.
 Two-electron integral symmetry is turned off.
 Leave Link  301 at Tue Feb  7 16:48:42 2017, MaxMem=  1048576000 cpu:         0.4
 (Enter /mnt/data/applications/G09/g09/l402.exe)
 External calculation of energy and first derivatives.
 Running external command "./sictwo_files/sictwo_g09d01 M"
         input file       "/scratch/Gau-22774.EIn"
         output file      "/scratch/Gau-22774.EOu"
         message file     "/scratch/Gau-22774.EMs"
         fchk file        "/scratch/Gau-22774.EFC"
         mat. el file     "/scratch/Gau-22774.EUF"

---------------------------- SICTWO Version 1.0 STARTED -----------------------------

MM calculations started
MM calculations finished ....
Information recovery

---------------------------- SICTWO Version 1.0 FINISHED -----------------------------

 Recovered energy= 0.445679204468E-01 dipole=     -0.757353410275     -0.430019364899     -0.064522576252
 Energy=    4.456792045E-02 NIter=   0.
 Dipole moment=      -0.757353      -0.430019      -0.064523
 Leave Link  402 at Tue Feb  7 16:48:44 2017, MaxMem=  1048576000 cpu:        15.7
 (Enter /mnt/data/applications/G09/g09/l601.exe)
 Leave Link  601 at Tue Feb  7 16:48:44 2017, MaxMem=  1048576000 cpu:         0.2
 (Enter /mnt/data/applications/G09/g09/l716.exe)
 Dipole        =-7.57353410D-01-4.30019365D-01-6.45225763D-02
 Cartesian Forces:  Max     0.045356729 RMS     0.011534061
 Leave Link  716 at Tue Feb  7 16:48:45 2017, MaxMem=  1048576000 cpu:         0.2
 (Enter /mnt/data/applications/G09/g09/l120.exe)
 SvSCFP did not find density file   528.
 ONIOM: saving gridpoint  1
 ONIOM: restoring gridpoint  3
 ONIOM: calculating energy.
 ONIOM: gridpoint  1 method:  low   system:  model energy:     0.044567920447
 ONIOM: gridpoint  2 method:  high  system:  model energy:  -212.559594451057
 ONIOM: gridpoint  3 method:  low   system:  real  energy:     0.064086186135
 ONIOM: extrapolated energy =    -212.540076185369
 ONIOM: calculating first derivatives.
 ONIOM: calculating electric field derivatives.
 ONIOM: Integrating ONIOM file  4 number   619
 ONIOM: Dipole        =-5.51756614D-01-3.61796336D-02-8.57789553D-03
 ONIOM: Dipole moment (Debye):
    X=    -1.4024    Y=    -0.0920    Z=    -0.0218  Tot=     1.4056
 ONIOM: Integrating ONIOM file  5 number   695
 Saving ESP charges from gridpoint 2
 Leave Link  120 at Tue Feb  7 16:48:45 2017, MaxMem=  1048576000 cpu:         0.0
 (Enter /mnt/data/applications/G09/g09/l716.exe)
 Dipole        =-5.51756614D-01-3.61796336D-02-8.57789553D-03
 -------------------------------------------------------------------
 Center     Atomic                   Forces (Hartrees/Bohr)
 Number     Number              X              Y              Z
 -------------------------------------------------------------------
      1        6          -0.006650257    0.057729783    0.012202366
      2        6           0.029240580   -0.015273151   -0.000135474
      3        1          -0.007884884    0.008333385   -0.014142146
      4        1          -0.012072381   -0.014929858   -0.000449594
      5        1          -0.007364993    0.008631788    0.013200679
      6        6           0.011837626    0.037678429    0.005413872
      7        1          -0.007213168   -0.014142245    0.012881654
      8        1          -0.010226459   -0.011746008   -0.014454672
      9        6          -0.006834218   -0.013412380   -0.020357795
     10        6          -0.012862303    0.020487226    0.006114325
     11        1          -0.002152094   -0.009055239   -0.012781768
     12        1           0.015325658   -0.000175406   -0.000190754
     13        1          -0.001079673   -0.011215766    0.010173029
     14        6           0.003516886   -0.019463548    0.013534327
     15        1          -0.006988487    0.002923036   -0.015314358
     16        1           0.005924752    0.014260996    0.000553624
     17        1           0.012868797    0.001465988   -0.009489199
     18        7           0.018661845   -0.023372644    0.002465685
     19        6          -0.015222338   -0.049464648   -0.007601799
     20        1          -0.012051975    0.011917388   -0.013033104
     21        1          -0.011520128    0.007255939    0.016418473
     22        1           0.014943176    0.006200783    0.000729526
     23        1           0.007804208    0.005365899    0.014262851
 -------------------------------------------------------------------
 Cartesian Forces:  Max     0.057729783 RMS     0.015474333
 Leave Link  716 at Tue Feb  7 16:48:45 2017, MaxMem=  1048576000 cpu:         0.2
 (Enter /mnt/data/applications/G09/g09/l103.exe)

 GradGradGradGradGradGradGradGradGradGradGradGradGradGradGradGradGradGrad
 Berny optimization.
 FormGI is forming the generalized inverse of G from B-inverse, IUseBI=4.
 GSVD:  received Info=                   1 from GESDD.
 Internal  Forces:  Max     0.064250822 RMS     0.012978379
 Search for a local minimum.
 Step number   1 out of a maximum of  116
 All quantities printed in internal units (Hartrees-Bohrs-Radians)
 RMS Force = .12978D-01 SwitMx=.10000D-02 MixMth= 1
 Mixed Optimization -- RFO/linear search
 Second derivative matrix not updated -- first step.
 ITU=  0
     Eigenvalues ---    0.00237   0.00237   0.00237   0.00237   0.00237
     Eigenvalues ---    0.00647   0.00766   0.03099   0.03921   0.04356
     Eigenvalues ---    0.04607   0.04607   0.05410   0.05720   0.05720
     Eigenvalues ---    0.05720   0.05720   0.07243   0.07243   0.08669
     Eigenvalues ---    0.10141   0.10141   0.12376   0.16000   0.16000
     Eigenvalues ---    0.16000   0.16000   0.16000   0.16000   0.16000
     Eigenvalues ---    0.16000   0.16000   0.16000   0.16000   0.16000
     Eigenvalues ---    0.16074   0.16074   0.21983   0.25000   0.25000
     Eigenvalues ---    0.25000   0.28519   0.28519   0.28519   0.28519
     Eigenvalues ---    0.28519   0.35740   0.37230   0.37230   0.37230
     Eigenvalues ---    0.37230   0.37230   0.37230   0.37230   0.37230
     Eigenvalues ---    0.37230   0.37230   0.37230   0.37230   0.37230
     Eigenvalues ---    0.37230   0.37230   0.69002
 RFO step:  Lambda=-5.81683836D-02 EMin= 2.36824077D-03
 Linear search not attempted -- first point.
 Maximum step size (   0.300) exceeded in Quadratic search.
    -- Step size scaled by   0.741
 Iteration  1 RMS(Cart)=  0.23497878 RMS(Int)=  0.01063599
 Iteration  2 RMS(Cart)=  0.03099165 RMS(Int)=  0.00059560
 Iteration  3 RMS(Cart)=  0.00062764 RMS(Int)=  0.00055511
 Iteration  4 RMS(Cart)=  0.00000023 RMS(Int)=  0.00055511
 ITry= 1 IFail=0 DXMaxC= 8.94D-01 DCOld= 1.00D+10 DXMaxT= 3.00D-01 DXLimC= 3.00D+00 Rises=F
 Variable       Old X    -DE/DX   Delta X   Delta X   Delta X     New X
                                 (Linear)    (Quad)   (Total)
    R1        2.91018  -0.00192   0.00000  -0.00414  -0.00414   2.90604
    R2        2.91018   0.00365   0.00000   0.00787   0.00787   2.91805
    R3        2.44455  -0.04341   0.00000  -0.04298  -0.04298   2.40157
    R4        2.02201   0.01810   0.00000   0.03116   0.03116   2.05317
    R5        2.02201   0.01810   0.00000   0.03115   0.03115   2.05316
    R6        2.02201   0.01730   0.00000   0.02978   0.02978   2.05179
    R7        2.02201   0.01994   0.00000   0.03433   0.03433   2.05633
    R8        2.02201   0.02037   0.00000   0.03506   0.03506   2.05706
    R9        2.91018   0.01408   0.00000   0.03037   0.03037   2.94055
   R10        2.91018  -0.00092   0.00000  -0.00198  -0.00198   2.90820
   R11        2.91018   0.01044   0.00000   0.02252   0.02252   2.93270
   R12        2.02201   0.01681   0.00000   0.02894   0.02894   2.05094
   R13        2.02201   0.01538   0.00000   0.02646   0.02646   2.04847
   R14        2.02201   0.01502   0.00000   0.02586   0.02586   2.04786
   R15        2.02201   0.01494   0.00000   0.02571   0.02571   2.04772
   R16        2.02201   0.01516   0.00000   0.02610   0.02610   2.04810
   R17        2.02201   0.01411   0.00000   0.02429   0.02429   2.04630
   R18        2.02201   0.01478   0.00000   0.02545   0.02545   2.04745
   R19        2.77790  -0.01977   0.00000  -0.03525  -0.03525   2.74265
   R20        2.02201   0.02071   0.00000   0.03564   0.03564   2.05765
   R21        2.02201   0.02074   0.00000   0.03569   0.03569   2.05770
   R22        2.02201   0.01608   0.00000   0.02767   0.02767   2.04968
    A1        2.09241  -0.02530   0.00000  -0.06082  -0.06088   2.03154
    A2        2.09241   0.00371   0.00000   0.00891   0.00885   2.10126
    A3        2.09836   0.02159   0.00000   0.05190   0.05183   2.15018
    A4        1.91063   0.00066   0.00000   0.00115   0.00109   1.91172
    A5        1.91063   0.00905   0.00000   0.03240   0.03227   1.94291
    A6        1.91063   0.00046   0.00000   0.00099   0.00092   1.91155
    A7        1.91063  -0.00424   0.00000  -0.01328  -0.01339   1.89724
    A8        1.91063  -0.00237   0.00000  -0.01137  -0.01138   1.89926
    A9        1.91063  -0.00356   0.00000  -0.00990  -0.01004   1.90060
   A10        1.91063  -0.02080   0.00000  -0.06669  -0.06704   1.84359
   A11        1.91063  -0.01144   0.00000  -0.01493  -0.01758   1.89305
   A12        1.91063   0.05091   0.00000   0.14540   0.14469   2.05532
   A13        1.91063   0.00366   0.00000  -0.02256  -0.02441   1.88622
   A14        1.91063  -0.01002   0.00000  -0.02182  -0.02022   1.89041
   A15        1.91063  -0.01231   0.00000  -0.01940  -0.02146   1.88917
   A16        1.91063  -0.00802   0.00000  -0.02777  -0.02731   1.88332
   A17        1.91063   0.01862   0.00000   0.07194   0.07160   1.98223
   A18        1.91063  -0.00300   0.00000  -0.00572  -0.00692   1.90371
   A19        1.91063  -0.00850   0.00000  -0.02815  -0.02761   1.88303
   A20        1.91063   0.00242   0.00000  -0.01348  -0.01388   1.89675
   A21        1.91063  -0.00153   0.00000   0.00319   0.00226   1.91289
   A22        1.91063   0.00430   0.00000   0.01528   0.01519   1.92583
   A23        1.91063   0.00284   0.00000   0.00946   0.00940   1.92003
   A24        1.91063   0.00229   0.00000   0.00729   0.00724   1.91788
   A25        1.91063  -0.00317   0.00000  -0.00977  -0.00987   1.90077
   A26        1.91063  -0.00315   0.00000  -0.01033  -0.01040   1.90023
   A27        1.91063  -0.00312   0.00000  -0.01192  -0.01194   1.89870
   A28        1.91063   0.00905   0.00000   0.03343   0.03302   1.94366
   A29        1.91063   0.00487   0.00000   0.01645   0.01618   1.92681
   A30        1.91063   0.00492   0.00000   0.01408   0.01394   1.92457
   A31        1.91063  -0.00479   0.00000  -0.01102  -0.01153   1.89911
   A32        1.91063  -0.00692   0.00000  -0.02333  -0.02360   1.88704
   A33        1.91063  -0.00712   0.00000  -0.02960  -0.02960   1.88104
   A34        2.44342  -0.06425   0.00000  -0.15447  -0.15447   2.28894
   A35        1.91063   0.00716   0.00000   0.02477   0.02467   1.93530
   A36        1.91063   0.00647   0.00000   0.02227   0.02216   1.93280
   A37        1.91063  -0.00542   0.00000  -0.01920  -0.01914   1.89149
   A38        1.91063  -0.00525   0.00000  -0.01626  -0.01652   1.89411
   A39        1.91063  -0.00149   0.00000  -0.00567  -0.00560   1.90503
   A40        1.91063  -0.00146   0.00000  -0.00591  -0.00586   1.90477
    D1       -1.94508  -0.00184   0.00000  -0.01529  -0.01510  -1.96018
    D2        0.14931  -0.00109   0.00000  -0.01101  -0.01080   0.13852
    D3        2.24371   0.00038   0.00000  -0.00269  -0.00241   2.24130
    D4        1.19651   0.00004   0.00000   0.00622   0.00595   1.20246
    D5       -2.99228   0.00079   0.00000   0.01050   0.01026  -2.98202
    D6       -0.89788   0.00226   0.00000   0.01883   0.01865  -0.87924
    D7       -1.11542   0.00588   0.00000   0.01687   0.01532  -1.10009
    D8        0.97898  -0.00938   0.00000  -0.06075  -0.06042   0.91856
    D9        3.07337  -0.00028   0.00000  -0.00461  -0.00322   3.07015
   D10        2.02617   0.00400   0.00000  -0.00472  -0.00638   2.01979
   D11       -2.16262  -0.01126   0.00000  -0.08234  -0.08212  -2.24474
   D12       -0.06822  -0.00217   0.00000  -0.02620  -0.02492  -0.09314
   D13        0.00000  -0.00081   0.00000  -0.00966  -0.01014  -0.01014
   D14        3.14159   0.00108   0.00000   0.01193   0.01240  -3.12919
   D15       -3.11765  -0.00696   0.00000  -0.07616  -0.07600   3.08953
   D16       -1.02326  -0.01088   0.00000  -0.08360  -0.08384  -1.10710
   D17        1.07114  -0.00318   0.00000  -0.03914  -0.03920   1.03194
   D18        1.07114  -0.00652   0.00000  -0.07016  -0.07015   1.00098
   D19       -3.11765  -0.01044   0.00000  -0.07760  -0.07799   3.08754
   D20       -1.02326  -0.00274   0.00000  -0.03314  -0.03335  -1.05661
   D21       -1.02326   0.00267   0.00000  -0.01729  -0.01684  -1.04010
   D22        1.07114  -0.00125   0.00000  -0.02473  -0.02468   1.04645
   D23       -3.11765   0.00645   0.00000   0.01973   0.01996  -3.09770
   D24        1.05531   0.00656   0.00000   0.02887   0.02890   1.08421
   D25       -3.13348   0.00706   0.00000   0.03205   0.03211  -3.10137
   D26       -1.03908   0.00638   0.00000   0.02771   0.02773  -1.01135
   D27       -1.03908  -0.00613   0.00000  -0.02499  -0.02500  -1.06409
   D28        1.05531  -0.00564   0.00000  -0.02181  -0.02179   1.03352
   D29       -3.13348  -0.00631   0.00000  -0.02615  -0.02617   3.12354
   D30       -3.13348  -0.00054   0.00000  -0.00339  -0.00343  -3.13691
   D31       -1.03908  -0.00004   0.00000  -0.00021  -0.00022  -1.03931
   D32        1.05531  -0.00072   0.00000  -0.00456  -0.00460   1.05071
   D33       -0.32343   0.00229   0.00000   0.00586   0.00614  -0.31728
   D34        1.77097   0.00494   0.00000   0.02290   0.02338   1.79435
   D35       -2.41782   0.00221   0.00000   0.00535   0.00563  -2.41220
   D36        1.77097  -0.00133   0.00000  -0.00134  -0.00152   1.76944
   D37       -2.41782   0.00132   0.00000   0.01570   0.01571  -2.40211
   D38       -0.32343  -0.00141   0.00000  -0.00185  -0.00204  -0.32547
   D39       -2.41782  -0.00451   0.00000  -0.03314  -0.03342  -2.45124
   D40       -0.32343  -0.00186   0.00000  -0.01610  -0.01618  -0.33961
   D41        1.77097  -0.00459   0.00000  -0.03365  -0.03394   1.73703
   D42       -1.02734  -0.00099   0.00000  -0.00525  -0.00550  -1.03284
   D43        1.06706   0.00092   0.00000   0.00364   0.00389   1.07095
   D44       -3.12173  -0.00023   0.00000  -0.00172  -0.00171  -3.12345
         Item               Value     Threshold  Converged?
 Maximum Force            0.064251     0.000450     NO 
 RMS     Force            0.012978     0.000300     NO 
 Maximum Displacement     0.893518     0.001800     NO 
 RMS     Displacement     0.256419     0.001200     NO 
 Predicted change in Energy=-3.113670D-02
 Lowest energy point so far.  Saving SCF results.
 GradGradGradGradGradGradGradGradGradGradGradGradGradGradGradGradGradGrad

 Leave Link  103 at Tue Feb  7 16:48:45 2017, MaxMem=  1048576000 cpu:         0.2
 (Enter /mnt/data/applications/G09/g09/l202.exe)
                          Input orientation:                          
 ---------------------------------------------------------------------
 Center     Atomic      Atomic             Coordinates (Angstroms)
 Number     Number       Type             X           Y           Z
 ---------------------------------------------------------------------
      1          6    10061002       -2.310035    0.550653    0.033979
      2          6    10061003       -3.842800    0.428008    0.055135
      3          1    10011000       -4.260123    0.939671   -0.807709
      4          1    10011000       -4.156277   -0.611937    0.028788
      5          1    10011000       -4.231329    0.889618    0.957818
      6          6    10061003       -1.520213   -0.753728   -0.209350
      7          1    10011000       -1.753206   -1.399396    0.635002
      8          1    10011000       -1.904290   -1.226079   -1.111742
      9          6    10061003        0.027470   -0.651354   -0.334092
     10          6    10061003        0.584490   -2.076856   -0.495485
     11          1    10011000        0.203059   -2.529919   -1.403399
     12          1    10011000        1.666678   -2.048713   -0.544942
     13          1    10011000        0.289545   -2.685859    0.350876
     14          6    10061003        0.497849    0.185188   -1.553676
     15          1    10011000       -0.293376    0.294525   -2.286240
     16          1    10011000        0.817491    1.169621   -1.235410
     17          1    10011000        1.339994   -0.295975   -2.036557
     18          7    10071002       -1.752164    1.675003    0.233202
     19          6    10061003       -2.314697    2.988031    0.489947
     20          1    10011000       -2.962589    3.299434   -0.327905
     21          1    10011000       -2.896551    2.985026    1.410333
     22          1    10011000       -1.499073    3.696369    0.587242
     23          1    10011000        0.429244   -0.222469    0.578343
 ---------------------------------------------------------------------
                    Distance matrix (angstroms):
                    1          2          3          4          5
     1  C    0.000000
     2  C    1.537809   0.000000
     3  H    2.159309   1.086489   0.000000
     4  H    2.181799   1.086484   1.765786   0.000000
     5  H    2.158644   1.085760   1.766471   1.767313   0.000000
     6  C    1.544163   2.619325   3.276087   2.650594   3.378316
     7  H    2.115178   2.835852   3.719850   2.600449   3.388936
     8  H    2.152692   2.802754   3.214477   2.597965   3.764886
     9  C    2.654096   4.036769   4.597731   4.199639   4.709670
    10  C    3.944923   5.116486   5.715523   4.989561   5.839877
    11  H    4.227485   5.219735   5.684443   4.973291   6.077201
    12  H    4.786032   6.070303   6.642774   6.024972   6.758591
    13  H    4.163322   5.182654   5.931801   4.916322   5.795749
    14  C    3.246295   4.635566   4.874835   4.980009   5.400829
    15  H    3.084791   4.254205   4.282213   4.593803   5.136684
    16  H    3.431602   4.892219   5.100781   5.432357   5.511736
    17  H    4.280959   5.635661   5.864997   5.880006   6.435180
    18  N    1.270855   2.440791   2.813195   3.324400   2.699659
    19  C    2.479665   3.012951   3.108756   4.069871   2.880228
    20  H    2.848260   3.027635   2.735376   4.104990   3.011644
    21  H    2.857363   3.044715   3.310968   4.053852   2.525299
    22  H    3.295343   4.056892   4.143509   5.092553   3.934514
    23  H    2.897879   4.352841   5.026119   4.634727   4.806421
                    6          7          8          9         10
     6  C    0.000000
     7  H    1.088165   0.000000
     8  H    1.088551   1.761812   0.000000
     9  C    1.556072   2.160906   2.160265   0.000000
    10  C    2.502462   2.683612   2.701411   1.538953   0.000000
    11  H    2.747776   3.043047   2.495192   2.168699   1.084004
    12  H    3.456281   3.675525   3.708072   2.164271   1.083682
    13  H    2.705957   2.430750   3.013822   2.162654   1.083607
    14  C    2.600260   3.516883   2.820860   1.551917   2.498824
    15  H    2.630102   3.678876   2.507334   2.192833   3.098533
    16  H    3.196393   4.087392   3.628052   2.180014   3.337873
    17  H    3.424763   4.233515   3.499393   2.178854   2.473303
    18  N    2.479594   3.100544   3.201295   2.983430   4.479663
    19  C    3.888570   4.425588   4.526871   4.405668   5.918568
    20  H    4.303793   4.946595   4.713244   4.954717   6.443164
    21  H    4.300693   4.596905   5.007879   4.981584   6.432142
    22  H    4.520881   5.102321   5.223144   4.699136   6.232468
    23  H    2.168658   2.480213   3.051066   1.085312   2.148478
                   11         12         13         14         15
    11  H    0.000000
    12  H    1.763714   0.000000
    13  H    1.763315   1.762084   0.000000
    14  C    2.735195   2.715514   3.451611   0.000000
    15  H    3.000557   3.516347   4.022048   1.083810   0.000000
    16  H    3.753977   3.399344   4.202351   1.082854   1.761835
    17  H    2.585346   2.324592   3.537630   1.083466   1.754688
    18  N    4.917594   5.114689   4.816590   3.236517   3.222013
    19  C    6.353867   6.503163   6.244553   4.465730   4.364393
    20  H    6.720073   7.076715   6.845499   4.814113   4.470934
    21  H    6.923821   7.069985   6.590341   5.305318   5.261176
    22  H    6.754744   6.656559   6.632334   4.571610   4.613366
    23  H    3.050047   2.475515   2.477811   2.171727   2.999217
                   16         17         18         19         20
    16  H    0.000000
    17  H    1.750090   0.000000
    18  N    3.002558   4.312540   0.000000
    19  C    4.011742   5.524914   1.451346   0.000000
    20  H    4.432683   5.861628   2.102082   1.088861   0.000000
    21  H    4.908132   6.371368   2.100338   1.088886   1.767678
    22  H    3.882394   5.557286   2.067685   1.084644   1.771139
    23  H    2.319128   2.769941   2.911711   4.224256   4.972889
                   21         22         23
    21  H    0.000000
    22  H    1.770998   0.000000
    23  H    4.694800   4.367583   0.000000
 Symmetry turned off by external request.
 Stoichiometry    C7H15N
 Framework group  C1[X(C7H15N)]
 Deg. of freedom    63
 Full point group                 C1      NOp   1
 Rotational constants (GHZ):      3.2915010      1.1012005      0.9065157
 Leave Link  202 at Tue Feb  7 16:48:45 2017, MaxMem=  1048576000 cpu:         0.0
 (Enter /mnt/data/applications/G09/g09/l120.exe)
 SvSCFP did not find density file   528.
 ONIOM: saving gridpoint 17
 ONIOM: restoring gridpoint  3
 ONIOM: restoring gridpoint  3 on chk file.
 ONIOM: generating point  3 -- low level on real system.
 Leave Link  120 at Tue Feb  7 16:48:45 2017, MaxMem=  1048576000 cpu:         0.0
 (Enter /mnt/data/applications/G09/g09/l301.exe)
 Standard basis: STO-3G (5D, 7F)
 Ernie: Thresh=  0.10000D-02 Tol=  0.10000D-05 Strict=F.
    55 basis functions,   165 primitive gaussians,    55 cartesian basis functions
    32 alpha electrons       32 beta electrons
       nuclear repulsion energy       385.3965527408 Hartrees.
 IExCor=    0 DFT=F Ex=HF Corr=None ExCW=0 ScaHFX=  1.000000
 ScaDFX=  1.000000  1.000000  1.000000  1.000000 ScalE2=  1.000000  1.000000
 IRadAn=      0 IRanWt=     -1 IRanGd=            0 ICorTp=0 IEmpDi=  4
 NAtoms=   23 NActive=   23 NUniq=   23 SFac= 1.00D+00 NAtFMM=   60 NAOKFM=F Big=F
 Integral buffers will be    131072 words long.
 Raffenetti 1 integral format.
 Two-electron integral symmetry is turned off.
 Leave Link  301 at Tue Feb  7 16:48:45 2017, MaxMem=  1048576000 cpu:         0.4
 (Enter /mnt/data/applications/G09/g09/l402.exe)
 External calculation of energy and first derivatives.
 Running external command "./sictwo_files/sictwo_g09d01 R"
         input file       "/scratch/Gau-22774.EIn"
         output file      "/scratch/Gau-22774.EOu"
         message file     "/scratch/Gau-22774.EMs"
         fchk file        "/scratch/Gau-22774.EFC"
         mat. el file     "/scratch/Gau-22774.EUF"

---------------------------- SICTWO Version 1.0 STARTED -----------------------------

MM calculations started
MM calculations finished ....
Information recovery

---------------------------- SICTWO Version 1.0 FINISHED -----------------------------

 Recovered energy= 0.433110473381E-01 dipole=     -0.821482556184     -0.510279154871     -0.075538625856
 Energy=    4.331104734E-02 NIter=   0.
 Dipole moment=      -0.821483      -0.510279      -0.075539
 Leave Link  402 at Tue Feb  7 16:48:48 2017, MaxMem=  1048576000 cpu:        20.5
 (Enter /mnt/data/applications/G09/g09/l716.exe)
 Dipole        =-8.21482556D-01-5.10279155D-01-7.55386259D-02
 Cartesian Forces:  Max     0.035484420 RMS     0.007949411
 Leave Link  716 at Tue Feb  7 16:48:48 2017, MaxMem=  1048576000 cpu:         0.2
 (Enter /mnt/data/applications/G09/g09/l120.exe)
 SvSCFP did not find density file   528.
 ONIOM: saving gridpoint  3
 ONIOM: restoring gridpoint  2
 ONIOM: restoring gridpoint  2 on chk file.
 ONIOM: generating point  2 -- high level on model system.
 Leave Link  120 at Tue Feb  7 16:48:48 2017, MaxMem=  1048576000 cpu:         0.0
 (Enter /mnt/data/applications/G09/g09/l301.exe)
 Standard basis: 6-31G(d) (6D, 7F)
 Ernie: Thresh=  0.10000D-02 Tol=  0.10000D-05 Strict=F.
    93 basis functions,   176 primitive gaussians,    93 cartesian basis functions
    20 alpha electrons       20 beta electrons
       nuclear repulsion energy       175.5045880445 Hartrees.
 IExCor=  402 DFT=T Ex+Corr=B3LYP ExCW=0 ScaHFX=  0.200000
 ScaDFX=  0.800000  0.720000  1.000000  0.810000 ScalE2=  1.000000  1.000000
 IRadAn=      0 IRanWt=     -1 IRanGd=            0 ICorTp=0 IEmpDi=  4
 NAtoms=   23 NActive=   14 NUniq=   14 SFac= 1.00D+00 NAtFMM=   60 NAOKFM=F Big=F
 Integral buffers will be    131072 words long.
 Raffenetti 2 integral format.
 Two-electron integral symmetry is turned off.
 Leave Link  301 at Tue Feb  7 16:48:48 2017, MaxMem=  1048576000 cpu:         0.3
 (Enter /mnt/data/applications/G09/g09/l302.exe)
 NPDir=0 NMtPBC=     1 NCelOv=     1 NCel=       1 NClECP=     1 NCelD=      1
         NCelK=      1 NCelE2=     1 NClLst=     1 CellRange=     0.0.
 One-electron integrals computed using PRISM.
 NBasis=    93 RedAO= T EigKep=  3.51D-03  NBF=    93
 NBsUse=    93 1.00D-06 EigRej= -1.00D+00 NBFU=    93
 Precomputing XC quadrature grid using
 IXCGrd= 4 IRadAn=           0 IRanWt=          -1 IRanGd=           0 AccXCQ= 0.00D+00.
 Generated NRdTot=       0 NPtTot=           0 NUsed=           0 NTot=          32
 NSgBfM=    93    93    93    93    93 MxSgAt=    14 MxSgA2=    14.
 Leave Link  302 at Tue Feb  7 16:48:49 2017, MaxMem=  1048576000 cpu:         2.0
 (Enter /mnt/data/applications/G09/g09/l303.exe)
 DipDrv:  MaxL=1.
 Leave Link  303 at Tue Feb  7 16:48:49 2017, MaxMem=  1048576000 cpu:         0.3
 (Enter /mnt/data/applications/G09/g09/l401.exe)
 Initial guess from the checkpoint file:  "I_4.chk"
 B after Tr=     0.032755    0.702982    0.045557
         Rot=    0.998612   -0.015455   -0.001775   -0.050326 Ang=  -6.04 deg.
 Guess basis will be translated and rotated to current coordinates.
 JPrj=2 DoOrth=T DoCkMO=T.
 Generating alternative initial guess.
 ExpMin= 1.61D-01 ExpMax= 4.17D+03 ExpMxC= 6.27D+02 IAcc=1 IRadAn=         1 AccDes= 0.00D+00
 Harris functional with IExCor=  402 and IRadAn=       1 diagonalized for initial guess.
 HarFok:  IExCor=  402 AccDes= 0.00D+00 IRadAn=         1 IDoV= 1 UseB2=F ITyADJ=14
 ICtDFT=  3500011 ScaDFX=  1.000000  1.000000  1.000000  1.000000
 FoFCou: FMM=F IPFlag=           0 FMFlag=      100000 FMFlg1=           0
         NFxFlg=           0 DoJE=T BraDBF=F KetDBF=T FulRan=T
         wScrn=  0.000000 ICntrl=     500 IOpCl=  0 I1Cent=   200000004 NGrid=           0
         NMat0=    1 NMatS0=      1 NMatT0=    0 NMatD0=    1 NMtDS0=    0 NMtDT0=    0
 Symmetry not used in FoFCou.
 Harris En= -212.616909563992    
 Leave Link  401 at Tue Feb  7 16:48:49 2017, MaxMem=  1048576000 cpu:         2.9
 (Enter /mnt/data/applications/G09/g09/l502.exe)
 Closed shell SCF:
 Using DIIS extrapolation, IDIIS=  1040.
 Two-electron integral symmetry not used.
 Keep R1 ints in memory in canonical form, NReq=10510157.
 IVT=       39321 IEndB=       39321 NGot=  1048576000 MDV=  1038981674
 LenX=  1038981674 LenY=  1038972584
 Requested convergence on RMS density matrix=1.00D-08 within 100 cycles.
 Requested convergence on MAX density matrix=1.00D-06.
 Requested convergence on             energy=1.00D-06.
 No special actions if energy rises.
 FoFCou: FMM=F IPFlag=           0 FMFlag=           0 FMFlg1=           0
         NFxFlg=           0 DoJE=F BraDBF=F KetDBF=F FulRan=T
         wScrn=  0.000000 ICntrl=     600 IOpCl=  0 I1Cent=           0 NGrid=           0
         NMat0=    1 NMatS0=   4371 NMatT0=    0 NMatD0=    1 NMtDS0=    0 NMtDT0=    0
 Symmetry not used in FoFCou.
 Integral accuracy reduced to 1.0D-05 until final iterations.

 Cycle   1  Pass 0  IDiag  1:
 E= -212.557272857423    
 DIIS: error= 7.90D-03 at cycle   1 NSaved=   1.
 NSaved= 1 IEnMin= 1 EnMin= -212.557272857423     IErMin= 1 ErrMin= 7.90D-03
 ErrMax= 7.90D-03  0.00D+00 EMaxC= 1.00D-01 BMatC= 7.33D-03 BMatP= 7.33D-03
 IDIUse=3 WtCom= 9.21D-01 WtEn= 7.90D-02
 Coeff-Com:  0.100D+01
 Coeff-En:   0.100D+01
 Coeff:      0.100D+01
 Gap=     1.903 Goal=   None    Shift=    0.000
 GapD=    1.903 DampG=2.000 DampE=1.000 DampFc=2.0000 IDamp=-1.
 RMSDP=1.55D-03 MaxDP=2.27D-02              OVMax= 3.74D-02

 Cycle   2  Pass 0  IDiag  1:
 E= -212.570845810428     Delta-E=       -0.013572953004 Rises=F Damp=F
 DIIS: error= 2.06D-03 at cycle   2 NSaved=   2.
 NSaved= 2 IEnMin= 2 EnMin= -212.570845810428     IErMin= 2 ErrMin= 2.06D-03
 ErrMax= 2.06D-03  0.00D+00 EMaxC= 1.00D-01 BMatC= 5.49D-04 BMatP= 7.33D-03
 IDIUse=3 WtCom= 9.79D-01 WtEn= 2.06D-02
 Coeff-Com:  0.454D-01 0.955D+00
 Coeff-En:   0.000D+00 0.100D+01
 Coeff:      0.445D-01 0.955D+00
 Gap=     0.222 Goal=   None    Shift=    0.000
 RMSDP=4.83D-04 MaxDP=1.04D-02 DE=-1.36D-02 OVMax= 1.74D-02

 Cycle   3  Pass 0  IDiag  1:
 E= -212.570412950850     Delta-E=        0.000432859577 Rises=F Damp=F
 DIIS: error= 3.02D-03 at cycle   3 NSaved=   3.
 NSaved= 3 IEnMin= 2 EnMin= -212.570845810428     IErMin= 2 ErrMin= 2.06D-03
 ErrMax= 3.02D-03  0.00D+00 EMaxC= 1.00D-01 BMatC= 1.12D-03 BMatP= 5.49D-04
 IDIUse=3 WtCom= 1.54D-01 WtEn= 8.46D-01
 Coeff-Com: -0.399D-01 0.613D+00 0.427D+00
 Coeff-En:   0.000D+00 0.630D+00 0.370D+00
 Coeff:     -0.615D-02 0.628D+00 0.379D+00
 Gap=     0.226 Goal=   None    Shift=    0.000
 RMSDP=3.23D-04 MaxDP=8.09D-03 DE= 4.33D-04 OVMax= 1.40D-02

 Cycle   4  Pass 0  IDiag  1:
 E= -212.571381242548     Delta-E=       -0.000968291698 Rises=F Damp=F
 DIIS: error= 4.92D-04 at cycle   4 NSaved=   4.
 NSaved= 4 IEnMin= 4 EnMin= -212.571381242548     IErMin= 4 ErrMin= 4.92D-04
 ErrMax= 4.92D-04  0.00D+00 EMaxC= 1.00D-01 BMatC= 3.60D-05 BMatP= 5.49D-04
[...]
   D20       -1.29156   0.00000   0.00001  -0.00001  -0.00001  -1.29156
   D21       -1.23395   0.00000   0.00000  -0.00001  -0.00001  -1.23395
   D22        0.89055   0.00000   0.00000  -0.00001   0.00000   0.89055
   D23        2.98403   0.00000   0.00001  -0.00001   0.00000   2.98403
   D24        1.05235   0.00000   0.00001   0.00000   0.00001   1.05236
   D25       -3.13182   0.00000   0.00001   0.00000   0.00001  -3.13181
   D26       -1.04685   0.00000   0.00001   0.00000   0.00001  -1.04684
   D27       -1.09024   0.00000   0.00001   0.00000   0.00001  -1.09024
   D28        1.00877   0.00000   0.00001   0.00000   0.00001   1.00878
   D29        3.09374   0.00000   0.00001   0.00000   0.00001   3.09375
   D30        3.13923   0.00000   0.00000   0.00000   0.00000   3.13924
   D31       -1.04494   0.00000   0.00000   0.00000   0.00000  -1.04494
   D32        1.04003   0.00000   0.00000   0.00000   0.00000   1.04004
   D33       -1.05353   0.00000   0.00001  -0.00003  -0.00002  -1.05355
   D34        1.04994   0.00000   0.00001  -0.00003  -0.00002   1.04992
   D35        3.13760   0.00000   0.00001  -0.00003  -0.00002   3.13758
   D36        1.07666   0.00000   0.00001  -0.00002  -0.00002   1.07664
   D37       -3.10306   0.00000   0.00000  -0.00002  -0.00002  -3.10308
   D38       -1.01540   0.00000   0.00001  -0.00002  -0.00002  -1.01542
   D39        3.12259   0.00000   0.00001  -0.00002  -0.00002   3.12257
   D40       -1.05712   0.00000   0.00001  -0.00003  -0.00002  -1.05714
   D41        1.03053   0.00000   0.00001  -0.00002  -0.00002   1.03052
   D42       -0.85175   0.00000  -0.00004  -0.00003  -0.00007  -0.85181
   D43        1.26177   0.00000  -0.00004  -0.00003  -0.00008   1.26169
   D44       -2.95423   0.00000  -0.00004  -0.00003  -0.00006  -2.95430
         Item               Value     Threshold  Converged?
 Maximum Force            0.000002     0.000450     YES
 RMS     Force            0.000000     0.000300     YES
 Maximum Displacement     0.000104     0.001800     YES
 RMS     Displacement     0.000027     0.001200     YES
 Predicted change in Energy=-6.755754D-11
 Optimization completed.
    -- Stationary point found.
                           ----------------------------
                           !   Optimized Parameters   !
                           ! (Angstroms and Degrees)  !
 --------------------------                            --------------------------
 ! Name  Definition              Value          Derivative Info.                !
 --------------------------------------------------------------------------------
 ! R1    R(1,2)                  1.5236         -DE/DX =    0.0                 !
 ! R2    R(1,6)                  1.525          -DE/DX =    0.0                 !
 ! R3    R(1,18)                 1.2753         -DE/DX =    0.0                 !
 ! R4    R(2,3)                  1.0982         -DE/DX =    0.0                 !
 ! R5    R(2,4)                  1.0934         -DE/DX =    0.0                 !
 ! R6    R(2,5)                  1.0965         -DE/DX =    0.0                 !
 ! R7    R(6,7)                  1.1021         -DE/DX =    0.0                 !
 ! R8    R(6,8)                  1.1002         -DE/DX =    0.0                 !
 ! R9    R(6,9)                  1.5331         -DE/DX =    0.0                 !
 ! R10   R(9,10)                 1.5306         -DE/DX =    0.0                 !
 ! R11   R(9,14)                 1.5309         -DE/DX =    0.0                 !
 ! R12   R(9,23)                 1.0969         -DE/DX =    0.0                 !
 ! R13   R(10,11)                1.0954         -DE/DX =    0.0                 !
 ! R14   R(10,12)                1.0952         -DE/DX =    0.0                 !
 ! R15   R(10,13)                1.0952         -DE/DX =    0.0                 !
 ! R16   R(14,15)                1.0955         -DE/DX =    0.0                 !
 ! R17   R(14,16)                1.0941         -DE/DX =    0.0                 !
 ! R18   R(14,17)                1.0954         -DE/DX =    0.0                 !
 ! R19   R(18,19)                1.4564         -DE/DX =    0.0                 !
 ! R20   R(19,20)                1.1003         -DE/DX =    0.0                 !
 ! R21   R(19,21)                1.1004         -DE/DX =    0.0                 !
 ! R22   R(19,22)                1.094          -DE/DX =    0.0                 !
 ! A1    A(2,1,6)              114.2433         -DE/DX =    0.0                 !
 ! A2    A(2,1,18)             124.4703         -DE/DX =    0.0                 !
 ! A3    A(6,1,18)             121.2664         -DE/DX =    0.0                 !
 ! A4    A(1,2,3)              110.6105         -DE/DX =    0.0                 !
 ! A5    A(1,2,4)              111.9549         -DE/DX =    0.0                 !
 ! A6    A(1,2,5)              111.193          -DE/DX =    0.0                 !
 ! A7    A(3,2,4)              107.7732         -DE/DX =    0.0                 !
 ! A8    A(3,2,5)              106.8323         -DE/DX =    0.0                 !
 ! A9    A(4,2,5)              108.2713         -DE/DX =    0.0                 !
 ! A10   A(1,6,7)              106.5348         -DE/DX =    0.0                 !
 ! A11   A(1,6,8)              108.8957         -DE/DX =    0.0                 !
 ! A12   A(1,6,9)              115.9608         -DE/DX =    0.0                 !
 ! A13   A(7,6,8)              104.9079         -DE/DX =    0.0                 !
 ! A14   A(7,6,9)              109.6936         -DE/DX =    0.0                 !
 ! A15   A(8,6,9)              110.2219         -DE/DX =    0.0                 !
 ! A16   A(6,9,10)             110.1257         -DE/DX =    0.0                 !
 ! A17   A(6,9,14)             111.3187         -DE/DX =    0.0                 !
 ! A18   A(6,9,23)             109.6983         -DE/DX =    0.0                 !
 ! A19   A(10,9,14)            109.5634         -DE/DX =    0.0                 !
 ! A20   A(10,9,23)            107.6673         -DE/DX =    0.0                 !
 ! A21   A(14,9,23)            108.3785         -DE/DX =    0.0                 !
 ! A22   A(9,10,11)            111.3156         -DE/DX =    0.0                 !
 ! A23   A(9,10,12)            110.8174         -DE/DX =    0.0                 !
 ! A24   A(9,10,13)            110.8116         -DE/DX =    0.0                 !
 ! A25   A(11,10,12)           108.0398         -DE/DX =    0.0                 !
 ! A26   A(11,10,13)           108.0514         -DE/DX =    0.0                 !
 ! A27   A(12,10,13)           107.665          -DE/DX =    0.0                 !
 ! A28   A(9,14,15)            111.2419         -DE/DX =    0.0                 !
 ! A29   A(9,14,16)            111.5414         -DE/DX =    0.0                 !
 ! A30   A(9,14,17)            110.6412         -DE/DX =    0.0                 !
 ! A31   A(15,14,16)           107.8933         -DE/DX =    0.0                 !
 ! A32   A(15,14,17)           107.856          -DE/DX =    0.0                 !
 ! A33   A(16,14,17)           107.4996         -DE/DX =    0.0                 !
 ! A34   A(1,18,19)            119.1075         -DE/DX =    0.0                 !
 ! A35   A(18,19,20)           113.4089         -DE/DX =    0.0                 !
 ! A36   A(18,19,21)           111.24           -DE/DX =    0.0                 !
 ! A37   A(18,19,22)           109.0284         -DE/DX =    0.0                 !
 ! A38   A(20,19,21)           107.3274         -DE/DX =    0.0                 !
 ! A39   A(20,19,22)           108.0779         -DE/DX =    0.0                 !
 ! A40   A(21,19,22)           107.5496         -DE/DX =    0.0                 !
 ! D1    D(6,1,2,3)           -113.6606         -DE/DX =    0.0                 !
 ! D2    D(6,1,2,4)              6.5532         -DE/DX =    0.0                 !
 ! D3    D(6,1,2,5)            127.8084         -DE/DX =    0.0                 !
 ! D4    D(18,1,2,3)            67.9535         -DE/DX =    0.0                 !
 ! D5    D(18,1,2,4)          -171.8327         -DE/DX =    0.0                 !
 ! D6    D(18,1,2,5)           -50.5774         -DE/DX =    0.0                 !
 ! D7    D(2,1,6,7)            -66.1891         -DE/DX =    0.0                 !
 ! D8    D(2,1,6,8)             46.4713         -DE/DX =    0.0                 !
 ! D9    D(2,1,6,9)            171.4314         -DE/DX =    0.0                 !
 ! D10   D(18,1,6,7)           112.2541         -DE/DX =    0.0                 !
 ! D11   D(18,1,6,8)          -135.0855         -DE/DX =    0.0                 !
 ! D12   D(18,1,6,9)           -10.1254         -DE/DX =    0.0                 !
 ! D13   D(2,1,18,19)           -0.2899         -DE/DX =    0.0                 !
 ! D14   D(6,1,18,19)         -178.568          -DE/DX =    0.0                 !
 ! D15   D(1,6,9,10)           165.0224         -DE/DX =    0.0                 !
 ! D16   D(1,6,9,14)           -73.2531         -DE/DX =    0.0                 !
 ! D17   D(1,6,9,23)            46.6947         -DE/DX =    0.0                 !
 ! D18   D(7,6,9,10)            44.327          -DE/DX =    0.0                 !
 ! D19   D(7,6,9,14)           166.0515         -DE/DX =    0.0                 !
 ! D20   D(7,6,9,23)           -74.0007         -DE/DX =    0.0                 !
 ! D21   D(8,6,9,10)           -70.6999         -DE/DX =    0.0                 !
 ! D22   D(8,6,9,14)            51.0246         -DE/DX =    0.0                 !
 ! D23   D(8,6,9,23)           170.9724         -DE/DX =    0.0                 !
 ! D24   D(6,9,10,11)           60.2954         -DE/DX =    0.0                 !
 ! D25   D(6,9,10,12)         -179.4402         -DE/DX =    0.0                 !
 ! D26   D(6,9,10,13)          -59.9798         -DE/DX =    0.0                 !
 ! D27   D(14,9,10,11)         -62.4663         -DE/DX =    0.0                 !
 ! D28   D(14,9,10,12)          57.7981         -DE/DX =    0.0                 !
 ! D29   D(14,9,10,13)         177.2585         -DE/DX =    0.0                 !
 ! D30   D(23,9,10,11)         179.8648         -DE/DX =    0.0                 !
 ! D31   D(23,9,10,12)         -59.8708         -DE/DX =    0.0                 !
 ! D32   D(23,9,10,13)          59.5896         -DE/DX =    0.0                 !
 ! D33   D(6,9,14,15)          -60.3628         -DE/DX =    0.0                 !
 ! D34   D(6,9,14,16)           60.1573         -DE/DX =    0.0                 !
 ! D35   D(6,9,14,17)          179.7713         -DE/DX =    0.0                 !
 ! D36   D(10,9,14,15)          61.6879         -DE/DX =    0.0                 !
 ! D37   D(10,9,14,16)        -177.7921         -DE/DX =    0.0                 !
 ! D38   D(10,9,14,17)         -58.178          -DE/DX =    0.0                 !
 ! D39   D(23,9,14,15)         178.9112         -DE/DX =    0.0                 !
 ! D40   D(23,9,14,16)         -60.5688         -DE/DX =    0.0                 !
 ! D41   D(23,9,14,17)          59.0453         -DE/DX =    0.0                 !
 ! D42   D(1,18,19,20)         -48.8014         -DE/DX =    0.0                 !
 ! D43   D(1,18,19,21)          72.2938         -DE/DX =    0.0                 !
 ! D44   D(1,18,19,22)        -169.2652         -DE/DX =    0.0                 !
 --------------------------------------------------------------------------------
 Lowest energy point so far.  Saving SCF results.
 GradGradGradGradGradGradGradGradGradGradGradGradGradGradGradGradGradGrad

 Largest change from initial coordinates is atom   15       0.334 Angstoms.
 Leave Link  103 at Tue Feb  7 16:52:39 2017, MaxMem=  1048576000 cpu:         0.1
 (Enter /mnt/data/applications/G09/g09/l202.exe)
                          Input orientation:                          
 ---------------------------------------------------------------------
 Center     Atomic      Atomic             Coordinates (Angstroms)
 Number     Number       Type             X           Y           Z
 ---------------------------------------------------------------------
      1          6    10061002       -2.233446    0.619615    0.035433
      2          6    10061003       -3.753416    0.559248   -0.050853
      3          1    10011000       -4.119121    1.187081   -0.874384
      4          1    10011000       -4.113031   -0.459024   -0.222348
      5          1    10011000       -4.217908    0.937773    0.867400
      6          6    10061003       -1.535108   -0.696996   -0.287906
      7          1    10011000       -1.813124   -1.403878    0.510642
      8          1    10011000       -1.974936   -1.117919   -1.204263
      9          6    10061003       -0.008493   -0.633778   -0.413478
     10          6    10061003        0.582752   -2.044782   -0.365695
     11          1    10011000        0.201787   -2.664102   -1.184985
     12          1    10011000        1.674636   -2.012155   -0.444607
     13          1    10011000        0.332446   -2.539780    0.578606
     14          6    10061003        0.414991    0.055754   -1.713087
     15          1    10011000        0.037764   -0.482807   -2.589306
     16          1    10011000        0.041244    1.082817   -1.763177
     17          1    10011000        1.506848    0.098479   -1.789494
     18          7    10071002       -1.570337    1.654375    0.376064
     19          6    10061003       -2.287260    2.878696    0.705046
     20          1    10011000       -3.044656    3.156289   -0.043284
     21          1    10011000       -2.800746    2.791762    1.674386
     22          1    10011000       -1.570561    3.701453    0.784021
     23          1    10011000        0.408771   -0.069260    0.429427
 ---------------------------------------------------------------------
                    Distance matrix (angstroms):
                    1          2          3          4          5
     1  C    0.000000
     2  C    1.523614   0.000000
     3  H    2.169229   1.098235   0.000000
     4  H    2.182373   1.093440   1.770551   0.000000
     5  H    2.175197   1.096458   1.762307   1.774709   0.000000
     6  C    1.525020   2.560319   3.251281   2.589714   3.347330
     7  H    2.120617   2.816712   3.734834   2.592218   3.375439
     8  H    2.150045   2.703004   3.165339   2.443307   3.680839
     9  C    2.592861   3.947057   4.519427   4.112700   4.672215
    10  C    3.897548   5.067785   5.728116   4.958382   5.784677
    11  H    4.266447   5.226841   5.796407   4.940313   6.059661
    12  H    4.736006   6.019212   6.632303   5.996558   6.719041
    13  H    4.106168   5.166668   5.984741   4.973262   5.734326
    14  C    3.223271   4.515766   4.747788   4.794818   5.375929
    15  H    3.641837   4.680028   4.796788   4.778300   5.663709
    16  H    2.936625   4.195906   4.255521   4.691421   5.008128
    17  H    4.194250   5.559276   5.802930   5.860869   6.366814
    18  N    1.275332   2.479394   2.877200   3.360037   2.786496
    19  C    2.356847   2.846197   2.951588   3.915849   2.742433
    20  H    2.664390   2.692029   2.392275   3.774119   2.669771
    21  H    2.779608   2.977944   3.287756   3.985888   2.469180
    22  H    3.239989   3.916034   3.945571   4.978605   3.827966
    23  H    2.758820   4.236684   4.876486   4.585130   4.755218
                    6          7          8          9         10
     6  C    0.000000
     7  H    1.102113   0.000000
     8  H    1.100153   1.746097   0.000000
     9  C    1.533074   2.168812   2.174082   0.000000
    10  C    2.511555   2.630389   2.846760   1.530616   0.000000
    11  H    2.773276   2.919449   2.670052   2.182121   1.095411
    12  H    3.472270   3.667012   3.833552   2.175734   1.095218
    13  H    2.763051   2.428655   3.244122   2.175618   1.095163
    14  C    2.529952   3.469869   2.710749   1.530939   2.501171
    15  H    2.795754   3.726101   2.524415   2.181549   2.771502
    16  H    2.798043   3.846113   3.036546   2.184230   3.468150
    17  H    3.484399   4.309282   3.734292   2.173908   2.733994
    18  N    2.443572   3.070825   3.216636   2.880691   4.343934
    19  C    3.786457   4.313123   4.440263   4.333745   5.798629
    20  H    4.145646   4.755904   4.556427   4.870312   6.349266
    21  H    4.198078   4.464649   4.924854   4.887758   6.245170
    22  H    4.527321   5.118395   5.229067   4.761123   6.243222
    23  H    2.165014   2.593187   3.074198   1.096941   2.136628
                   11         12         13         14         15
    11  H    0.000000
    12  H    1.772703   0.000000
    13  H    1.772789   1.768284   0.000000
    14  C    2.778842   2.733495   3.463447   0.000000
    15  H    2.599436   3.101289   3.788620   1.095494   0.000000
    16  H    3.794665   3.739713   4.323420   1.094100   1.770221
    17  H    3.114557   2.508317   3.734639   1.095361   1.770819
    18  N    4.922047   4.964554   4.610048   3.295704   3.993364
    19  C    6.363189   6.398340   6.019861   4.595490   5.249590
    20  H    6.761644   7.010392   6.651072   4.936671   5.406159
    21  H    6.852566   6.899044   6.280363   5.413103   6.079392
    22  H    6.894816   6.684770   6.528140   4.844490   5.610176
    23  H    3.063066   2.478143   2.476197   2.146167   3.069432
                   16         17         18         19         20
    16  H    0.000000
    17  H    1.765675   0.000000
    18  N    2.738654   4.071796   0.000000
    19  C    3.839172   5.324246   1.456423   0.000000
    20  H    4.096352   5.754619   2.145976   1.100321   0.000000
    21  H    4.776426   6.148789   2.119716   1.100384   1.772784
    22  H    3.992917   5.392110   2.087332   1.093995   1.776118
    23  H    2.503971   2.481435   2.625002   4.004372   4.749082
                   21         22         23
    21  H    0.000000
    22  H    1.770211   0.000000
    23  H    4.476200   4.273379   0.000000
 Symmetry turned off by external request.
 Stoichiometry    C7H15N
 Framework group  C1[X(C7H15N)]
 Deg. of freedom    63
 Full point group                 C1      NOp   1
 Rotational constants (GHZ):      3.4188556      1.0964203      0.9494230
 Leave Link  202 at Tue Feb  7 16:52:39 2017, MaxMem=  1048576000 cpu:         0.0
 (Enter /mnt/data/applications/G09/g09/l9999.exe)
 1\1\GINC-KIMIK2129\FOpt\ONIOM(B3LYP/6-31G(d):External='./sictwo_files/
 sictwo_g09d01')\Mixed\C7H15N1\IFUNES\07-Feb-2017\0\\#p opt=nomicro oni
 om(B3LYP/6-31G*:external="./sictwo_files/sictwo_g09d01") geom=connecti
 vity nosymm scf(maxcyc=100)\\ONIOM(QM:MM) OPT FREQ with SICTWO V1.0\\0
 ,1\C,-2.2334456367,0.6196146664,0.0354325013\C,-3.7534158836,0.5592475
 676,-0.0508525473\H,-4.119120539,1.1870814544,-0.8743843321\H,-4.11303
 08159,-0.4590242643,-0.2223480682\H,-4.2179078142,0.9377727749,0.86739
 95213\C,-1.5351075799,-0.6969958474,-0.2879061647\H,-1.8131238961,-1.4
 038775175,0.5106419644\H,-1.9749362829,-1.1179188837,-1.2042632582\C,-
 0.0084929675,-0.6337781632,-0.4134783232\C,0.5827519942,-2.0447822855,
 -0.3656954639\H,0.2017873999,-2.6641017951,-1.1849847406\H,1.674636427
 3,-2.0121553713,-0.4446069509\H,0.3324461108,-2.5397797699,0.578606414
 1\C,0.4149907383,0.0557536437,-1.7130868446\H,0.0377638187,-0.48280713
 25,-2.5893057656\H,0.0412442759,1.0828173775,-1.7631770901\H,1.5068475
 759,0.0984787698,-1.789494439\N,-1.5703370075,1.6543753785,0.376063565
 1\C,-2.2872600009,2.8786957219,0.7050464263\H,-3.0446562338,3.15628881
 36,-0.0432840124\H,-2.800746261,2.7917615952,1.6743864303\H,-1.5705606
 442,3.7014528763,0.784021068\H,0.4087712623,-0.0692595891,0.4294267601
 \\Version=EM64L-G09RevD.01\HF=0.0275091\RMSD=2.862e-09\RMSF=1.123e-06\
 Dipole=-0.7420023,-0.2279238,-0.080612\PG=C01 [X(C7H15N1)]\\@


 OPTIMIST - A PESSIMIST WHO LACKS EXPERIENCE
 Job cpu time:       0 days  0 hours 27 minutes 41.6 seconds.
 File lengths (MBytes):  RWF=      7 Int=      0 D2E=      0 Chk=      3 Scr=      1
 Normal termination of Gaussian 09 at Tue Feb  7 16:52:39 2017.
