 Entering Gaussian System, Link 0=g09
 Initial command:
 /mnt/data/applications/G09/g09/l1.exe "/scratch/Gau-11540.inp" -scrdir="/scratch/"
 Entering Link 1 = /mnt/data/applications/G09/g09/l1.exe PID=     11541.
  
 Copyright (c) 1988,1990,1992,1993,1995,1998,2003,2009,2013,
            Gaussian, Inc.  All Rights Reserved.
  
 This is part of the Gaussian(R) 09 program.  It is based on
 the Gaussian(R) 03 system (copyright 2003, Gaussian, Inc.),
 the Gaussian(R) 98 system (copyright 1998, Gaussian, Inc.),
 the Gaussian(R) 94 system (copyright 1995, Gaussian, Inc.),
 the Gaussian 92(TM) system (copyright 1992, Gaussian, Inc.),
 the Gaussian 90(TM) system (copyright 1990, Gaussian, Inc.),
 the Gaussian 88(TM) system (copyright 1988, Gaussian, Inc.),
 the Gaussian 86(TM) system (copyright 1986, Carnegie Mellon
 University), and the Gaussian 82(TM) system (copyright 1983,
 Carnegie Mellon University). Gaussian is a federally registered
 trademark of Gaussian, Inc.
  
 This software contains proprietary and confidential information,
 including trade secrets, belonging to Gaussian, Inc.
  
 This software is provided under written license and may be
 used, copied, transmitted, or stored only in accord with that
 written license.
  
 The following legend is applicable only to US Government
 contracts under FAR:
  
                    RESTRICTED RIGHTS LEGEND
  
 Use, reproduction and disclosure by the US Government is
 subject to restrictions as set forth in subparagraphs (a)
 and (c) of the Commercial Computer Software - Restricted
 Rights clause in FAR 52.227-19.
  
 Gaussian, Inc.
 340 Quinnipiac St., Bldg. 40, Wallingford CT 06492
  
  
 ---------------------------------------------------------------
 Warning -- This program may not be used in any manner that
 competes with the business of Gaussian, Inc. or will provide
 assistance to any competitor of Gaussian, Inc.  The licensee
 of this program is prohibited from giving any competitor of
 Gaussian, Inc. access to this program.  By using this program,
 the user acknowledges that Gaussian, Inc. is engaged in the
 business of creating and licensing software in the field of
 computational chemistry and represents and warrants to the
 licensee that it is not a competitor of Gaussian, Inc. and that
 it will not use this program in any manner prohibited above.
 ---------------------------------------------------------------
  

 Cite this work as:
 Gaussian 09, Revision D.01,
 M. J. Frisch, G. W. Trucks, H. B. Schlegel, G. E. Scuseria, 
 M. A. Robb, J. R. Cheeseman, G. Scalmani, V. Barone, B. Mennucci, 
 G. A. Petersson, H. Nakatsuji, M. Caricato, X. Li, H. P. Hratchian, 
 A. F. Izmaylov, J. Bloino, G. Zheng, J. L. Sonnenberg, M. Hada, 
 M. Ehara, K. Toyota, R. Fukuda, J. Hasegawa, M. Ishida, T. Nakajima, 
 Y. Honda, O. Kitao, H. Nakai, T. Vreven, J. A. Montgomery, Jr., 
 J. E. Peralta, F. Ogliaro, M. Bearpark, J. J. Heyd, E. Brothers, 
 K. N. Kudin, V. N. Staroverov, T. Keith, R. Kobayashi, J. Normand, 
 K. Raghavachari, A. Rendell, J. C. Burant, S. S. Iyengar, J. Tomasi, 
 M. Cossi, N. Rega, J. M. Millam, M. Klene, J. E. Knox, J. B. Cross, 
 V. Bakken, C. Adamo, J. Jaramillo, R. Gomperts, R. E. Stratmann, 
 O. Yazyev, A. J. Austin, R. Cammi, C. Pomelli, J. W. Ochterski, 
 R. L. Martin, K. Morokuma, V. G. Zakrzewski, G. A. Voth, 
 P. Salvador, J. J. Dannenberg, S. Dapprich, A. D. Daniels, 
 O. Farkas, J. B. Foresman, J. V. Ortiz, J. Cioslowski, 
 and D. J. Fox, Gaussian, Inc., Wallingford CT, 2013.
 
 ******************************************
 Gaussian 09:  EM64L-G09RevD.01 24-Apr-2013
                 7-Feb-2017 
 ******************************************
 %nprocshared=8
 Will use up to    8 processors via shared memory.
 %mem=8000MB
 %chk=C_1
 ----------------------------------------------------------------------
 #p opt=nomicro oniom(B3LYP/6-31G*:external="./sictwo_files/sictwo_g09d
 01") geom=connectivity nosymm scf(maxcyc=100)
 ----------------------------------------------------------------------
 1/14=-1,18=20,19=15,26=1,38=1,52=2,57=2/1,3;
 2/9=110,12=2,15=1,17=6,18=5,40=1/2;
 1/14=-1,18=20,19=15,26=1,38=1,52=2,53=3172/20;
 3/11=9,16=1,25=1,30=1,41=9900000,43=2,71=1/1;
 4/20=17,22=1,23=100,24=3,113=1,114=1/2;
 6/7=2,8=2,9=2,10=2/1;
 7/7=1,30=1,33=-1,44=-1/16;
 1/14=-1,18=20,19=15,26=1,52=2,53=2032/20;
 3/5=1,6=6,7=1,11=2,16=1,25=1,30=1,71=1,74=-5/1,2,3;
 4//1;
 5/5=2,7=100,38=5/2;
 6/7=2,8=2,9=2,10=2,28=1/1;
 7/7=1,30=1,33=-1/1,2,3,16;
 1/14=-1,18=20,19=15,26=1,52=2,53=1022/20;
 3/11=9,16=1,25=1,30=1,41=9900000,43=2,71=1/1;
 4/20=17,22=1,23=100,24=3,113=1,114=2/2;
 6/7=2,8=2,9=2,10=2/1;
 7/7=1,30=1,33=-1,44=-1/16;
 1/14=-1,18=20,19=15,26=1,52=2,53=3015/20;
 7/9=1,44=-1/16;
 1/14=-1,18=20,19=15,26=1,52=2/3(2);
 2/9=110,15=1/2;
 99//99;
 2/9=110,15=1/2;
 1/14=-1,18=20,19=15,26=1,52=2,53=3173/20;
 3/11=9,16=1,25=1,30=1,41=9900000,43=2,71=1/1;
 4/16=2,20=17,22=1,23=100,24=3,113=1,114=1/2;
 7/7=1,30=1,33=-1,44=-1/16;
 1/14=-1,18=20,19=15,26=1,52=2,53=2033/20;
 3/5=1,6=6,7=1,11=2,16=1,25=1,30=1,71=1,74=-5/1,2,3;
 4/5=5,16=3,69=1/1;
 5/5=2,7=100,38=5/2;
 7/7=1,30=1,33=-1/1,2,3,16;
 1/14=-1,18=20,19=15,26=1,52=2,53=1023/20;
 3/11=9,16=1,25=1,30=1,41=9900000,43=2,71=1/1;
 4/16=2,20=17,22=1,23=100,24=3,113=1,114=2/2;
 7/7=1,30=1,33=-1,44=-1/16;
 1/14=-1,18=20,19=15,26=1,52=2,53=3015/20;
 7/9=1,44=-1/16;
 1/14=-1,18=20,19=15,26=1,52=2/3(-16);
 2/9=110,15=1/2;
 99//99;
 Leave Link    1 at Tue Feb  7 16:25:52 2017, MaxMem=  1048576000 cpu:         0.9
 (Enter /mnt/data/applications/G09/g09/l101.exe)
 ONIOM: restoring gridpoint  3 on chk file.
 --------------------------------------
 ONIOM(QM:MM) OPT FREQ with SICTWO V1.0
 --------------------------------------
 Symbolic Z-matrix:
 Charge =  0 Multiplicity = 1 for low   level calculation on real  system.
 Charge =  0 Multiplicity = 1 for high  level calculation on model system.
 Charge =  0 Multiplicity = 1 for low   level calculation on model system.
 C-C_2                0    -2.36842   0.38462   0.       H 
 O-O_2                0    -1.74138   1.46353   0.16231  H 
 C-C_3                0    -3.90842   0.38462   0.       H 
 H-H_                 0    -4.26509   0.88902  -0.87365  H 
 H-H_                 0    -4.26509  -0.62419   0.       H 
 H-H_                 0    -4.26509   0.88902   0.87365  H 
 C-C_3                0    -1.60106  -0.93573  -0.19863  H 
 H-H_                 0    -1.80801  -1.59492   0.61841  H 
 H-H_                 0    -1.91129  -1.39428  -1.11426  H 
 H-H_                 0    -0.55073  -0.73537  -0.23803  L    H-H_     7     0.        0. 
 
 Warning:  atom H10 in layer R is uses the same element as its link atom.
 NAtoms=     10 NQM=       10 NQMF=       0 NMMI=      0 NMMIF=      0
                NMic=       0 NMicF=      0.
                    Isotopes and Nuclear Properties:
 (Nuclear quadrupole moments (NQMom) in fm**2, nuclear magnetic moments (NMagM)
  in nuclear magnetons)

  Atom         1           2           3           4           5           6           7           8           9          10
 IAtWgt=          12          16          12           1           1           1          12           1           1           1
 AtmWgt=  12.0000000  15.9949146  12.0000000   1.0078250   1.0078250   1.0078250  12.0000000   1.0078250   1.0078250   1.0078250
 NucSpn=           0           0           0           1           1           1           0           1           1           1
 AtZEff=   0.0000000   0.0000000   0.0000000   0.0000000   0.0000000   0.0000000   0.0000000   0.0000000   0.0000000   0.0000000
 NQMom=    0.0000000   0.0000000   0.0000000   0.0000000   0.0000000   0.0000000   0.0000000   0.0000000   0.0000000   0.0000000
 NMagM=    0.0000000   0.0000000   0.0000000   2.7928460   2.7928460   2.7928460   0.0000000   2.7928460   2.7928460   2.7928460
 AtZNuc=   6.0000000   8.0000000   6.0000000   1.0000000   1.0000000   1.0000000   6.0000000   1.0000000   1.0000000   1.0000000
 Leave Link  101 at Tue Feb  7 16:25:52 2017, MaxMem=  1048576000 cpu:         3.1
 (Enter /mnt/data/applications/G09/g09/l103.exe)

 GradGradGradGradGradGradGradGradGradGradGradGradGradGradGradGradGradGrad
 Berny optimization.
 Initialization pass.
                           ----------------------------
                           !    Initial Parameters    !
                           ! (Angstroms and Degrees)  !
 --------------------------                            --------------------------
 ! Name  Definition              Value          Derivative Info.                !
 --------------------------------------------------------------------------------
 ! R1    R(1,2)                  1.2584         estimate D2E/DX2                !
 ! R2    R(1,3)                  1.54           estimate D2E/DX2                !
 ! R3    R(1,7)                  1.54           estimate D2E/DX2                !
 ! R4    R(3,4)                  1.07           estimate D2E/DX2                !
 ! R5    R(3,5)                  1.07           estimate D2E/DX2                !
 ! R6    R(3,6)                  1.07           estimate D2E/DX2                !
 ! R7    R(7,8)                  1.07           estimate D2E/DX2                !
 ! R8    R(7,9)                  1.07           estimate D2E/DX2                !
 ! R9    R(7,10)                 1.07           estimate D2E/DX2                !
 ! A1    A(2,1,3)              119.8865         estimate D2E/DX2                !
 ! A2    A(2,1,7)              120.2269         estimate D2E/DX2                !
 ! A3    A(3,1,7)              119.8865         estimate D2E/DX2                !
 ! A4    A(1,3,4)              109.4712         estimate D2E/DX2                !
 ! A5    A(1,3,5)              109.4712         estimate D2E/DX2                !
 ! A6    A(1,3,6)              109.4712         estimate D2E/DX2                !
 ! A7    A(4,3,5)              109.4713         estimate D2E/DX2                !
 ! A8    A(4,3,6)              109.4712         estimate D2E/DX2                !
 ! A9    A(5,3,6)              109.4712         estimate D2E/DX2                !
 ! A10   A(1,7,8)              109.4712         estimate D2E/DX2                !
 ! A11   A(1,7,9)              109.4712         estimate D2E/DX2                !
 ! A12   A(1,7,10)             109.4712         estimate D2E/DX2                !
 ! A13   A(8,7,9)              109.4713         estimate D2E/DX2                !
 ! A14   A(8,7,10)             109.4712         estimate D2E/DX2                !
 ! A15   A(9,7,10)             109.4712         estimate D2E/DX2                !
 ! D1    D(2,1,3,4)             68.5551         estimate D2E/DX2                !
 ! D2    D(2,1,3,5)           -171.4449         estimate D2E/DX2                !
 ! D3    D(2,1,3,6)            -51.4449         estimate D2E/DX2                !
 ! D4    D(7,1,3,4)           -111.4449         estimate D2E/DX2                !
 ! D5    D(7,1,3,5)              8.5551         estimate D2E/DX2                !
 ! D6    D(7,1,3,6)            128.5551         estimate D2E/DX2                !
 ! D7    D(2,1,7,8)            116.0912         estimate D2E/DX2                !
 ! D8    D(2,1,7,9)           -123.9088         estimate D2E/DX2                !
 ! D9    D(2,1,7,10)            -3.9088         estimate D2E/DX2                !
 ! D10   D(3,1,7,8)            -63.9088         estimate D2E/DX2                !
 ! D11   D(3,1,7,9)             56.0912         estimate D2E/DX2                !
 ! D12   D(3,1,7,10)           176.0912         estimate D2E/DX2                !
 --------------------------------------------------------------------------------
 Trust Radius=3.00D-01 FncErr=1.00D-07 GrdErr=1.00D-07
 Number of steps in this run=     46 maximum allowed number of steps=    100.
 GradGradGradGradGradGradGradGradGradGradGradGradGradGradGradGradGradGrad

 Leave Link  103 at Tue Feb  7 16:25:52 2017, MaxMem=  1048576000 cpu:         0.1
 (Enter /mnt/data/applications/G09/g09/l202.exe)
                          Input orientation:                          
 ---------------------------------------------------------------------
 Center     Atomic      Atomic             Coordinates (Angstroms)
 Number     Number       Type             X           Y           Z
 ---------------------------------------------------------------------
      1          6    10061002       -2.368421    0.384615    0.000000
      2          8    10081002       -1.741381    1.463526    0.162305
      3          6    10061003       -3.908421    0.384615    0.000000
      4          1    10011000       -4.265087    0.889018   -0.873651
      5          1    10011000       -4.265087   -0.624190    0.000000
      6          1    10011000       -4.265088    0.889018    0.873651
      7          6    10061003       -1.601064   -0.935730   -0.198625
      8          1    10011000       -1.808014   -1.594917    0.618408
      9          1    10011000       -1.911285   -1.394283   -1.114263
     10          1    10011000       -0.550729   -0.735372   -0.238027
 ---------------------------------------------------------------------
                    Distance matrix (angstroms):
                    1          2          3          4          5
     1  C    0.000000
     2  O    1.258400   0.000000
     3  C    1.540000   2.426202   0.000000
     4  H    2.148263   2.787895   1.070000   0.000000
     5  H    2.148263   3.279329   1.070000   1.747303   0.000000
     6  H    2.148263   2.684245   1.070000   1.747303   1.747303
     7  C    1.540000   2.430306   2.665832   3.298846   2.689522
     8  H    2.148263   3.092983   2.951726   3.799129   2.713291
     9  H    2.148263   3.134575   2.897346   3.288121   2.715697
    10  H    2.148263   2.532404   3.547552   4.103550   3.723638
                    6          7          8          9         10
     6  H    0.000000
     7  C    3.402426   0.000000
     8  H    3.503183   1.070000   0.000000
     9  H    3.834795   1.070000   1.747303   0.000000
    10  H    4.203681   1.070000   1.747303   1.747303   0.000000
 Symmetry turned off by external request.
 Stoichiometry    C3H6O
 Framework group  C1[X(C3H6O)]
 Deg. of freedom    24
 Full point group                 C1      NOp   1
 Rotational constants (GHZ):     10.0769212      8.0492930      4.7327344
 Leave Link  202 at Tue Feb  7 16:25:52 2017, MaxMem=  1048576000 cpu:         0.0
 (Enter /mnt/data/applications/G09/g09/l120.exe)
 ONIOM: Cut between H /H    10 and C     7 factor= 1.000000 1.000000
 ONIOM: saving gridpoint 17
 ONIOM: restoring gridpoint  3 on chk file.
 ONIOM: generating point  3 -- low level on real system.
 Leave Link  120 at Tue Feb  7 16:25:52 2017, MaxMem=  1048576000 cpu:         0.0
 (Enter /mnt/data/applications/G09/g09/l301.exe)
 Standard basis: STO-3G (5D, 7F)
 Ernie: Thresh=  0.10000D-02 Tol=  0.10000D-05 Strict=F.
    26 basis functions,    78 primitive gaussians,    26 cartesian basis functions
    16 alpha electrons       16 beta electrons
       nuclear repulsion energy       117.7778478608 Hartrees.
 IExCor=    0 DFT=F Ex=HF Corr=None ExCW=0 ScaHFX=  1.000000
 ScaDFX=  1.000000  1.000000  1.000000  1.000000 ScalE2=  1.000000  1.000000
 IRadAn=      0 IRanWt=     -1 IRanGd=            0 ICorTp=0 IEmpDi=  4
 NAtoms=   10 NActive=   10 NUniq=   10 SFac= 1.00D+00 NAtFMM=   60 NAOKFM=F Big=F
 Integral buffers will be    131072 words long.
 Raffenetti 1 integral format.
 Two-electron integral symmetry is turned off.
 Leave Link  301 at Tue Feb  7 16:25:53 2017, MaxMem=  1048576000 cpu:         0.6
 (Enter /mnt/data/applications/G09/g09/l402.exe)
 External calculation of energy and first derivatives.
 Running external command "./sictwo_files/sictwo_g09d01 R"
         input file       "/scratch/Gau-11541.EIn"
         output file      "/scratch/Gau-11541.EOu"
         message file     "/scratch/Gau-11541.EMs"
         fchk file        "/scratch/Gau-11541.EFC"
         mat. el file     "/scratch/Gau-11541.EUF"

---------------------------- SICTWO Version 1.0 STARTED -----------------------------

MM calculations started
MM calculations finished ....
Information recovery

---------------------------- SICTWO Version 1.0 FINISHED -----------------------------

 Recovered energy= 0.834983179960E-02 dipole=     -0.764435156449     -1.314450775963     -0.197895462529
 Energy=    8.349831800E-03 NIter=   0.
 Dipole moment=      -0.764435      -1.314451      -0.197895
 Leave Link  402 at Tue Feb  7 16:25:56 2017, MaxMem=  1048576000 cpu:        20.4
 (Enter /mnt/data/applications/G09/g09/l601.exe)
 Leave Link  601 at Tue Feb  7 16:25:56 2017, MaxMem=  1048576000 cpu:         0.2
 (Enter /mnt/data/applications/G09/g09/l716.exe)
 Dipole        =-7.64435156D-01-1.31445078D+00-1.97895463D-01
 Cartesian Forces:  Max     0.029539176 RMS     0.012816923
 Leave Link  716 at Tue Feb  7 16:25:56 2017, MaxMem=  1048576000 cpu:         0.2
 (Enter /mnt/data/applications/G09/g09/l120.exe)
 SvSCFP did not find density file   528.
 ONIOM: saving gridpoint  3
 ONIOM: restoring gridpoint 17
 ONIOM: restoring gridpoint  2 on chk file.
 ONIOM: generating point  2 -- high level on model system.
 Leave Link  120 at Tue Feb  7 16:25:56 2017, MaxMem=  1048576000 cpu:         0.0
 (Enter /mnt/data/applications/G09/g09/l301.exe)
 Standard basis: 6-31G(d) (6D, 7F)
 Ernie: Thresh=  0.10000D-02 Tol=  0.10000D-05 Strict=F.
    72 basis functions,   136 primitive gaussians,    72 cartesian basis functions
    16 alpha electrons       16 beta electrons
       nuclear repulsion energy       117.7778478608 Hartrees.
 IExCor=  402 DFT=T Ex+Corr=B3LYP ExCW=0 ScaHFX=  0.200000
 ScaDFX=  0.800000  0.720000  1.000000  0.810000 ScalE2=  1.000000  1.000000
 IRadAn=      0 IRanWt=     -1 IRanGd=            0 ICorTp=0 IEmpDi=  4
 NAtoms=   10 NActive=   10 NUniq=   10 SFac= 1.00D+00 NAtFMM=   60 NAOKFM=F Big=F
 Integral buffers will be    131072 words long.
 Raffenetti 2 integral format.
 Two-electron integral symmetry is turned off.
 Leave Link  301 at Tue Feb  7 16:25:56 2017, MaxMem=  1048576000 cpu:         0.4
 (Enter /mnt/data/applications/G09/g09/l302.exe)
 NPDir=0 NMtPBC=     1 NCelOv=     1 NCel=       1 NClECP=     1 NCelD=      1
         NCelK=      1 NCelE2=     1 NClLst=     1 CellRange=     0.0.
 One-electron integrals computed using PRISM.
 NBasis=    72 RedAO= T EigKep=  5.46D-03  NBF=    72
 NBsUse=    72 1.00D-06 EigRej= -1.00D+00 NBFU=    72
 Precomputing XC quadrature grid using
 IXCGrd= 4 IRadAn=           0 IRanWt=          -1 IRanGd=           0 AccXCQ= 0.00D+00.
 Generated NRdTot=       0 NPtTot=           0 NUsed=           0 NTot=          32
 NSgBfM=    72    72    72    72    72 MxSgAt=    10 MxSgA2=    10.
 Leave Link  302 at Tue Feb  7 16:25:56 2017, MaxMem=  1048576000 cpu:         1.3
 (Enter /mnt/data/applications/G09/g09/l303.exe)
 DipDrv:  MaxL=1.
 Leave Link  303 at Tue Feb  7 16:25:56 2017, MaxMem=  1048576000 cpu:         0.3
 (Enter /mnt/data/applications/G09/g09/l401.exe)
 ExpMin= 1.61D-01 ExpMax= 5.48D+03 ExpMxC= 8.25D+02 IAcc=1 IRadAn=         1 AccDes= 0.00D+00
 Harris functional with IExCor=  402 and IRadAn=       1 diagonalized for initial guess.
 HarFok:  IExCor=  402 AccDes= 0.00D+00 IRadAn=         1 IDoV= 1 UseB2=F ITyADJ=14
 ICtDFT=  3500011 ScaDFX=  1.000000  1.000000  1.000000  1.000000
 FoFCou: FMM=F IPFlag=           0 FMFlag=      100000 FMFlg1=           0
         NFxFlg=           0 DoJE=T BraDBF=F KetDBF=T FulRan=T
         wScrn=  0.000000 ICntrl=     500 IOpCl=  0 I1Cent=   200000004 NGrid=           0
         NMat0=    1 NMatS0=      1 NMatT0=    0 NMatD0=    1 NMtDS0=    0 NMtDT0=    0
 Symmetry not used in FoFCou.
 Harris En= -193.206797673776    
 JPrj=0 DoOrth=F DoCkMO=F.
 Leave Link  401 at Tue Feb  7 16:25:57 2017, MaxMem=  1048576000 cpu:         1.8
 (Enter /mnt/data/applications/G09/g09/l502.exe)
 Closed shell SCF:
 Using DIIS extrapolation, IDIIS=  1040.
 Two-electron integral symmetry not used.
 Keep R1 ints in memory in canonical form, NReq=4377122.
 IVT=       28606 IEndB=       28606 NGot=  1048576000 MDV=  1045092889
 LenX=  1045092889 LenY=  1045087264
 Requested convergence on RMS density matrix=1.00D-08 within 100 cycles.
 Requested convergence on MAX density matrix=1.00D-06.
 Requested convergence on             energy=1.00D-06.
 No special actions if energy rises.
 FoFCou: FMM=F IPFlag=           0 FMFlag=           0 FMFlg1=           0
         NFxFlg=           0 DoJE=F BraDBF=F KetDBF=F FulRan=T
         wScrn=  0.000000 ICntrl=     600 IOpCl=  0 I1Cent=           0 NGrid=           0
         NMat0=    1 NMatS0=   2628 NMatT0=    0 NMatD0=    1 NMtDS0=    0 NMtDT0=    0
 Symmetry not used in FoFCou.
 Integral accuracy reduced to 1.0D-05 until final iterations.

 Cycle   1  Pass 0  IDiag  1:
 E= -192.975052869245    
 DIIS: error= 5.78D-02 at cycle   1 NSaved=   1.
 NSaved= 1 IEnMin= 1 EnMin= -192.975052869245     IErMin= 1 ErrMin= 5.78D-02
 ErrMax= 5.78D-02  0.00D+00 EMaxC= 1.00D-01 BMatC= 1.86D-01 BMatP= 1.86D-01
 IDIUse=3 WtCom= 4.22D-01 WtEn= 5.78D-01
 Coeff-Com:  0.100D+01
 Coeff-En:   0.100D+01
 Coeff:      0.100D+01
 Gap=     0.108 Goal=   None    Shift=    0.000
 GapD=    0.108 DampG=1.000 DampE=0.500 DampFc=0.5000 IDamp=-1.
 Damping current iteration by 5.00D-01
 RMSDP=1.32D-02 MaxDP=2.04D-01              OVMax= 3.19D-01

 Cycle   2  Pass 0  IDiag  1:
 E= -193.030097949846     Delta-E=       -0.055045080601 Rises=F Damp=T
 DIIS: error= 1.92D-02 at cycle   2 NSaved=   2.
 NSaved= 2 IEnMin= 2 EnMin= -193.030097949846     IErMin= 2 ErrMin= 1.92D-02
 ErrMax= 1.92D-02  0.00D+00 EMaxC= 1.00D-01 BMatC= 2.71D-02 BMatP= 1.86D-01
 IDIUse=3 WtCom= 8.08D-01 WtEn= 1.92D-01
 Coeff-Com:  0.212D+00 0.788D+00
 Coeff-En:   0.305D+00 0.695D+00
 Coeff:      0.230D+00 0.770D+00
 Gap=     0.218 Goal=   None    Shift=    0.000
 RMSDP=4.00D-03 MaxDP=6.08D-02 DE=-5.50D-02 OVMax= 2.67D-01

 Cycle   3  Pass 0  IDiag  1:
 E= -193.120022346789     Delta-E=       -0.089924396943 Rises=F Damp=F
 DIIS: error= 2.46D-02 at cycle   3 NSaved=   3.
 NSaved= 3 IEnMin= 3 EnMin= -193.120022346789     IErMin= 2 ErrMin= 1.92D-02
 ErrMax= 2.46D-02  0.00D+00 EMaxC= 1.00D-01 BMatC= 3.22D-02 BMatP= 2.71D-02
 IDIUse=2 WtCom= 0.00D+00 WtEn= 1.00D+00
 Coeff-En:   0.000D+00 0.000D+00 0.100D+01
 Coeff:      0.000D+00 0.000D+00 0.100D+01
 Gap=     0.189 Goal=   None    Shift=    0.000
 RMSDP=6.65D-03 MaxDP=1.26D-01 DE=-8.99D-02 OVMax= 2.39D-01

 Cycle   4  Pass 0  IDiag  1:
 E= -192.999152419571     Delta-E=        0.120869927218 Rises=F Damp=F
 DIIS: error= 5.94D-02 at cycle   4 NSaved=   4.
 NSaved= 4 IEnMin= 3 EnMin= -193.120022346789     IErMin= 2 ErrMin= 1.92D-02
 ErrMax= 5.94D-02  0.00D+00 EMaxC= 1.00D-01 BMatC= 1.84D-01 BMatP= 2.71D-02
 IDIUse=2 WtCom= 0.00D+00 WtEn= 1.00D+00
 Coeff-En:   0.000D+00 0.000D+00 0.788D+00 0.212D+00
 Coeff:      0.000D+00 0.000D+00 0.788D+00 0.212D+00
 Gap=     0.207 Goal=   None    Shift=    0.000
 RMSDP=3.77D-03 MaxDP=6.99D-02 DE= 1.21D-01 OVMax= 1.33D-01

 Cycle   5  Pass 0  IDiag  1:
 E= -193.138825715563     Delta-E=       -0.139673295992 Rises=F Damp=F
 DIIS: error= 1.41D-02 at cycle   5 NSaved=   5.
 NSaved= 5 IEnMin= 5 EnMin= -193.138825715563     IErMin= 5 ErrMin= 1.41D-02
 ErrMax= 1.41D-02  0.00D+00 EMaxC= 1.00D-01 BMatC= 1.14D-02 BMatP= 2.71D-02
 IDIUse=3 WtCom= 8.59D-01 WtEn= 1.41D-01
 Coeff-Com: -0.167D-01 0.535D-01 0.277D+00-0.100D+00 0.786D+00
 Coeff-En:   0.000D+00 0.000D+00 0.299D+00 0.000D+00 0.701D+00
 Coeff:     -0.144D-01 0.460D-01 0.280D+00-0.861D-01 0.774D+00
 Gap=     0.221 Goal=   None    Shift=    0.000
 RMSDP=1.19D-03 MaxDP=2.14D-02 DE=-1.40D-01 OVMax= 3.89D-02

 Cycle   6  Pass 0  IDiag  1:
 E= -193.148498154974     Delta-E=       -0.009672439411 Rises=F Damp=F
 DIIS: error= 6.41D-04 at cycle   6 NSaved=   6.
 NSaved= 6 IEnMin= 6 EnMin= -193.148498154974     IErMin= 6 ErrMin= 6.41D-04
 ErrMax= 6.41D-04  0.00D+00 EMaxC= 1.00D-01 BMatC= 2.55D-05 BMatP= 1.14D-02
 IDIUse=3 WtCom= 9.94D-01 WtEn= 6.41D-03
 Coeff-Com: -0.663D-02 0.130D-01 0.788D-01-0.307D-01 0.264D+00 0.682D+00
 Coeff-En:   0.000D+00 0.000D+00 0.000D+00 0.000D+00 0.000D+00 0.100D+01
 Coeff:     -0.659D-02 0.130D-01 0.782D-01-0.305D-01 0.262D+00 0.684D+00
 Gap=     0.221 Goal=   None    Shift=    0.000
 RMSDP=6.49D-05 MaxDP=1.34D-03 DE=-9.67D-03 OVMax= 2.07D-03

 Cycle   7  Pass 0  IDiag  1:
 E= -193.148517624383     Delta-E=       -0.000019469409 Rises=F Damp=F
 DIIS: error= 1.07D-04 at cycle   7 NSaved=   7.
 NSaved= 7 IEnMin= 7 EnMin= -193.148517624383     IErMin= 7 ErrMin= 1.07D-04
 ErrMax= 1.07D-04  0.00D+00 EMaxC= 1.00D-01 BMatC= 7.40D-07 BMatP= 2.55D-05
 IDIUse=3 WtCom= 9.99D-01 WtEn= 1.07D-03
 Coeff-Com: -0.178D-02 0.271D-02 0.165D-01-0.818D-02 0.670D-01 0.320D+00
 Coeff-Com:  0.604D+00
 Coeff-En:   0.000D+00 0.000D+00 0.000D+00 0.000D+00 0.000D+00 0.000D+00
 Coeff-En:   0.100D+01
 Coeff:     -0.178D-02 0.271D-02 0.165D-01-0.817D-02 0.670D-01 0.320D+00
 Coeff:      0.604D+00
 Gap=     0.221 Goal=   None    Shift=    0.000
 RMSDP=1.50D-05 MaxDP=1.70D-04 DE=-1.95D-05 OVMax= 2.55D-04

 Cycle   8  Pass 0  IDiag  1:
 E= -193.148518278641     Delta-E=       -0.000000654258 Rises=F Damp=F
 DIIS: error= 1.01D-05 at cycle   8 NSaved=   8.
 NSaved= 8 IEnMin= 8 EnMin= -193.148518278641     IErMin= 8 ErrMin= 1.01D-05
 ErrMax= 1.01D-05  0.00D+00 EMaxC= 1.00D-01 BMatC= 8.37D-09 BMatP= 7.40D-07
 IDIUse=1 WtCom= 1.00D+00 WtEn= 0.00D+00
 Coeff-Com: -0.139D-04-0.106D-03 0.200D-03-0.384D-03 0.206D-02 0.235D-01
 Coeff-Com:  0.669D-01 0.908D+00
 Coeff:     -0.139D-04-0.106D-03 0.200D-03-0.384D-03 0.206D-02 0.235D-01
 Coeff:      0.669D-01 0.908D+00
 Gap=     0.221 Goal=   None    Shift=    0.000
 RMSDP=1.26D-06 MaxDP=1.62D-05 DE=-6.54D-07 OVMax= 2.06D-05

 Initial convergence to 1.0D-05 achieved.  Increase integral accuracy.
 Cycle   9  Pass 1  IDiag  1:
 E= -193.148513379620     Delta-E=        0.000004899021 Rises=F Damp=F
 DIIS: error= 5.56D-06 at cycle   1 NSaved=   1.
 NSaved= 1 IEnMin= 1 EnMin= -193.148513379620     IErMin= 1 ErrMin= 5.56D-06
 ErrMax= 5.56D-06  0.00D+00 EMaxC= 1.00D-01 BMatC= 4.44D-09 BMatP= 4.44D-09
 IDIUse=1 WtCom= 1.00D+00 WtEn= 0.00D+00
 Coeff-Com:  0.100D+01
 Coeff:      0.100D+01
 Gap=     0.221 Goal=   None    Shift=    0.000
 RMSDP=1.26D-06 MaxDP=1.62D-05 DE= 4.90D-06 OVMax= 2.48D-05

 Cycle  10  Pass 1  IDiag  1:
 E= -193.148513384939     Delta-E=       -0.000000005319 Rises=F Damp=F
 DIIS: error= 3.75D-06 at cycle   2 NSaved=   2.
 NSaved= 2 IEnMin= 2 EnMin= -193.148513384939     IErMin= 2 ErrMin= 3.75D-06
 ErrMax= 3.75D-06  0.00D+00 EMaxC= 1.00D-01 BMatC= 8.04D-10 BMatP= 4.44D-09
 IDIUse=1 WtCom= 1.00D+00 WtEn= 0.00D+00
 Coeff-Com:  0.169D+00 0.831D+00
 Coeff:      0.169D+00 0.831D+00
 Gap=     0.221 Goal=   None    Shift=    0.000
 RMSDP=9.22D-07 MaxDP=1.88D-05 DE=-5.32D-09 OVMax= 3.17D-05

 Cycle  11  Pass 1  IDiag  1:
 E= -193.148513383770     Delta-E=        0.000000001170 Rises=F Damp=F
 DIIS: error= 7.00D-06 at cycle   3 NSaved=   3.
 NSaved= 3 IEnMin= 2 EnMin= -193.148513384939     IErMin= 2 ErrMin= 3.75D-06
 ErrMax= 7.00D-06  0.00D+00 EMaxC= 1.00D-01 BMatC= 2.41D-09 BMatP= 8.04D-10
 IDIUse=1 WtCom= 1.00D+00 WtEn= 0.00D+00
 Coeff-Com: -0.695D-02 0.641D+00 0.366D+00
 Coeff:     -0.695D-02 0.641D+00 0.366D+00
 Gap=     0.221 Goal=   None    Shift=    0.000
 RMSDP=5.25D-07 MaxDP=1.19D-05 DE= 1.17D-09 OVMax= 1.96D-05

 Cycle  12  Pass 1  IDiag  1:
 E= -193.148513385616     Delta-E=       -0.000000001846 Rises=F Damp=F
 DIIS: error= 4.39D-07 at cycle   4 NSaved=   4.
 NSaved= 4 IEnMin= 4 EnMin= -193.148513385616     IErMin= 4 ErrMin= 4.39D-07
 ErrMax= 4.39D-07  0.00D+00 EMaxC= 1.00D-01 BMatC= 1.53D-11 BMatP= 8.04D-10
 IDIUse=1 WtCom= 1.00D+00 WtEn= 0.00D+00
 Coeff-Com: -0.137D-01 0.252D+00 0.151D+00 0.611D+00
 Coeff:     -0.137D-01 0.252D+00 0.151D+00 0.611D+00
 Gap=     0.221 Goal=   None    Shift=    0.000
 RMSDP=6.82D-08 MaxDP=1.12D-06 DE=-1.85D-09 OVMax= 1.02D-06

 Cycle  13  Pass 1  IDiag  1:
 E= -193.148513385630     Delta-E=       -0.000000000014 Rises=F Damp=F
 DIIS: error= 1.04D-07 at cycle   5 NSaved=   5.
 NSaved= 5 IEnMin= 5 EnMin= -193.148513385630     IErMin= 5 ErrMin= 1.04D-07
 ErrMax= 1.04D-07  0.00D+00 EMaxC= 1.00D-01 BMatC= 1.22D-12 BMatP= 1.53D-11
 IDIUse=1 WtCom= 1.00D+00 WtEn= 0.00D+00
 Coeff-Com: -0.470D-02 0.749D-01 0.392D-01 0.268D+00 0.623D+00
 Coeff:     -0.470D-02 0.749D-01 0.392D-01 0.268D+00 0.623D+00
 Gap=     0.221 Goal=   None    Shift=    0.000
 RMSDP=1.60D-08 MaxDP=2.51D-07 DE=-1.42D-11 OVMax= 2.64D-07

 Cycle  14  Pass 1  IDiag  1:
 E= -193.148513385632     Delta-E=       -0.000000000002 Rises=F Damp=F
 DIIS: error= 1.81D-08 at cycle   6 NSaved=   6.
 NSaved= 6 IEnMin= 6 EnMin= -193.148513385632     IErMin= 6 ErrMin= 1.81D-08
 ErrMax= 1.81D-08  0.00D+00 EMaxC= 1.00D-01 BMatC= 3.47D-14 BMatP= 1.22D-12
 IDIUse=1 WtCom= 1.00D+00 WtEn= 0.00D+00
 Coeff-Com: -0.513D-03 0.537D-02 0.284D-03 0.435D-01 0.192D+00 0.759D+00
 Coeff:     -0.513D-03 0.537D-02 0.284D-03 0.435D-01 0.192D+00 0.759D+00
 Gap=     0.221 Goal=   None    Shift=    0.000
 RMSDP=3.17D-09 MaxDP=4.16D-08 DE=-1.71D-12 OVMax= 4.90D-08

 SCF Done:  E(RB3LYP) =  -193.148513386     A.U. after   14 cycles
            NFock= 14  Conv=0.32D-08     -V/T= 2.0094
 KE= 1.913440811739D+02 PE=-6.855724001412D+02 EE= 1.833019577208D+02
 Leave Link  502 at Tue Feb  7 16:25:58 2017, MaxMem=  1048576000 cpu:        12.0
 (Enter /mnt/data/applications/G09/g09/l601.exe)
 Copying SCF densities to generalized density rwf, IOpCl= 0 IROHF=0.

 **********************************************************************

            Population analysis using the SCF density.

 **********************************************************************

 Alpha  occ. eigenvalues --  -19.13289 -10.28238 -10.18808 -10.18753  -1.00994
 Alpha  occ. eigenvalues --   -0.76593  -0.71738  -0.53302  -0.45817  -0.44977
 Alpha  occ. eigenvalues --   -0.44932  -0.41831  -0.38569  -0.38415  -0.33400
 Alpha  occ. eigenvalues --   -0.24111
 Alpha virt. eigenvalues --   -0.02010   0.09709   0.14271   0.15341   0.15527
 Alpha virt. eigenvalues --    0.16385   0.19405   0.19881   0.27738   0.31303
 Alpha virt. eigenvalues --    0.49079   0.52832   0.56064   0.57815   0.60180
 Alpha virt. eigenvalues --    0.65995   0.66602   0.67787   0.74274   0.82069
 Alpha virt. eigenvalues --    0.86746   0.87834   0.89726   0.92134   0.93139
 Alpha virt. eigenvalues --    0.95290   0.98012   1.02207   1.10416   1.18924
 Alpha virt. eigenvalues --    1.35339   1.38533   1.44853   1.52166   1.75880
 Alpha virt. eigenvalues --    1.77704   1.80135   1.80285   1.88866   1.91509
 Alpha virt. eigenvalues --    1.98869   2.12191   2.17222   2.24017   2.25865
 Alpha virt. eigenvalues --    2.33884   2.36102   2.44051   2.56965   2.64076
 Alpha virt. eigenvalues --    2.90992   2.92188   3.88235   4.06204   4.26786
 Alpha virt. eigenvalues --    4.45544
          Condensed to atoms (all electrons):
               1          2          3          4          5          6
     1  C    4.507464   0.550421   0.307975  -0.016797  -0.022000  -0.016907
     2  O    0.550421   8.036868  -0.079116  -0.000921   0.003758   0.000157
     3  C    0.307975  -0.079116   5.325327   0.365668   0.339619   0.365032
     4  H   -0.016797  -0.000921   0.365668   0.504666  -0.027163  -0.018024
     5  H   -0.022000   0.003758   0.339619  -0.027163   0.574476  -0.027325
     6  H   -0.016907   0.000157   0.365032  -0.018024  -0.027325   0.502935
     7  C    0.331498  -0.075452  -0.120387   0.003255   0.005528   0.004099
     8  H   -0.020350   0.001288   0.003299   0.000021   0.000129  -0.000271
     9  H   -0.022622   0.001726   0.004462  -0.000132  -0.000635   0.000021
    10  H   -0.020574   0.005669   0.005883  -0.000164  -0.000125  -0.000149
               7          8          9         10
     1  C    0.331498  -0.020350  -0.022622  -0.020574
     2  O   -0.075452   0.001288   0.001726   0.005669
     3  C   -0.120387   0.003299   0.004462   0.005883
     4  H    0.003255   0.000021  -0.000132  -0.000164
     5  H    0.005528   0.000129  -0.000635  -0.000125
     6  H    0.004099  -0.000271   0.000021  -0.000149
     7  C    5.311173   0.354918   0.353685   0.355862
     8  H    0.354918   0.535777  -0.026035  -0.022720
     9  H    0.353685  -0.026035   0.543011  -0.023786
    10  H    0.355862  -0.022720  -0.023786   0.513662
 Mulliken charges:
               1
     1  C    0.421892
     2  O   -0.444398
     3  C   -0.517761
     4  H    0.189591
     5  H    0.153735
     6  H    0.190432
     7  C   -0.524179
     8  H    0.173944
     9  H    0.170303
    10  H    0.186442
 Sum of Mulliken charges =   0.00000
 Mulliken charges with hydrogens summed into heavy atoms:
               1
     1  C    0.421892
     2  O   -0.444398
     3  C    0.015997
     7  C    0.006510
 Electronic spatial extent (au):  <R**2>=            985.3219
 Charge=              0.0000 electrons
 Dipole moment (field-independent basis, Debye):
    X=             -1.5193    Y=             -2.4435    Z=             -0.3814  Tot=              2.9024
 Quadrupole moment (field-independent basis, Debye-Ang):
   XX=            -16.9642   YY=            -28.2514   ZZ=            -23.7193
   XY=              3.0800   XZ=              0.6475   YZ=             -0.5675
 Traceless Quadrupole moment (field-independent basis, Debye-Ang):
   XX=              6.0141   YY=             -5.2731   ZZ=             -0.7410
   XY=              3.0800   XZ=              0.6475   YZ=             -0.5675
 Octapole moment (field-independent basis, Debye-Ang**2):
  XXX=            153.6133  YYY=            -21.9351  ZZZ=              1.8251  XYY=             65.8615
  XXY=             -6.1918  XXZ=             -0.5201  XZZ=             57.8224  YZZ=             -4.7457
  YYZ=              0.0008  XYZ=              1.0124
 Hexadecapole moment (field-independent basis, Debye-Ang**3):
 XXXX=           -992.1644 YYYY=           -170.0382 ZZZZ=            -36.6604 XXXY=             37.0471
 XXXZ=             -0.7281 YYYX=             65.0354 YYYZ=            -10.4824 ZZZX=             -2.1915
 ZZZY=             -7.8713 XXYY=           -212.3164 XXZZ=           -177.4412 YYZZ=            -30.5992
 XXYZ=             -4.6514 YYXZ=              0.5141 ZZXY=             14.9566
 N-N= 1.177778478608D+02 E-N=-6.855723994311D+02  KE= 1.913440811739D+02
 No NMR shielding tensors so no spin-rotation constants.
 Leave Link  601 at Tue Feb  7 16:25:58 2017, MaxMem=  1048576000 cpu:         1.1
 (Enter /mnt/data/applications/G09/g09/l701.exe)
 Compute integral first derivatives.
 ... and contract with generalized density number  0.
 Leave Link  701 at Tue Feb  7 16:25:59 2017, MaxMem=  1048576000 cpu:         1.2
 (Enter /mnt/data/applications/G09/g09/l702.exe)
 L702 exits ... SP integral derivatives will be done elsewhere.
 Leave Link  702 at Tue Feb  7 16:25:59 2017, MaxMem=  1048576000 cpu:         0.2
 (Enter /mnt/data/applications/G09/g09/l703.exe)
 Compute integral first derivatives, UseDBF=F ICtDFT=           0.
 Integral derivatives from FoFJK, PRISM(SPDF).
 Calling FoFJK, ICntrl=      2127 FMM=F ISym2X=0 I1Cent= 0 IOpClX= 0 NMat=1 NMatS=1 NMatT=0.
 FoFJK:  IHMeth= 1 ICntrl=    2127 DoSepK=F KAlg= 0 I1Cent=   0 FoldK=F
 IRaf=         0 NMat=   1 IRICut=       1 DoRegI=T DoRafI=F ISym2E= 0.
 FoFCou: FMM=F IPFlag=           0 FMFlag=      100000 FMFlg1=         800
         NFxFlg=           0 DoJE=F BraDBF=F KetDBF=F FulRan=T
         wScrn=  0.000000 ICntrl=    2127 IOpCl=  0 I1Cent=           0 NGrid=           0
         NMat0=    1 NMatS0=      1 NMatT0=    0 NMatD0=    1 NMtDS0=    0 NMtDT0=    0
 Symmetry not used in FoFCou.
 Leave Link  703 at Tue Feb  7 16:25:59 2017, MaxMem=  1048576000 cpu:         4.2
 (Enter /mnt/data/applications/G09/g09/l716.exe)
 Dipole        =-5.97732273D-01-9.61331672D-01-1.50041771D-01
 Cartesian Forces:  Max     0.050394906 RMS     0.019085288
 Leave Link  716 at Tue Feb  7 16:26:00 2017, MaxMem=  1048576000 cpu:         0.2
 (Enter /mnt/data/applications/G09/g09/l120.exe)
 SvSCFP is copying densities from files   528 and   530 to   603.
 ONIOM: saving gridpoint  2
 ONIOM: restoring gridpoint 17
 ONIOM: restoring gridpoint  1 on chk file.
 ONIOM: generating point  1 -- low level on model system.
 Leave Link  120 at Tue Feb  7 16:26:00 2017, MaxMem=  1048576000 cpu:         0.2
 (Enter /mnt/data/applications/G09/g09/l301.exe)
 Standard basis: STO-3G (5D, 7F)
 Ernie: Thresh=  0.10000D-02 Tol=  0.10000D-05 Strict=F.
    26 basis functions,    78 primitive gaussians,    26 cartesian basis functions
    16 alpha electrons       16 beta electrons
       nuclear repulsion energy       117.7778478608 Hartrees.
 IExCor=    0 DFT=F Ex=HF Corr=None ExCW=0 ScaHFX=  1.000000
 ScaDFX=  1.000000  1.000000  1.000000  1.000000 ScalE2=  1.000000  1.000000
 IRadAn=      0 IRanWt=     -1 IRanGd=            0 ICorTp=0 IEmpDi=  4
 NAtoms=   10 NActive=   10 NUniq=   10 SFac= 1.00D+00 NAtFMM=   60 NAOKFM=F Big=F
 Integral buffers will be    131072 words long.
 Raffenetti 1 integral format.
 Two-electron integral symmetry is turned off.
 Leave Link  301 at Tue Feb  7 16:26:00 2017, MaxMem=  1048576000 cpu:         0.5
 (Enter /mnt/data/applications/G09/g09/l402.exe)
 External calculation of energy and first derivatives.
 Running external command "./sictwo_files/sictwo_g09d01 M"
         input file       "/scratch/Gau-11541.EIn"
         output file      "/scratch/Gau-11541.EOu"
         message file     "/scratch/Gau-11541.EMs"
         fchk file        "/scratch/Gau-11541.EFC"
         mat. el file     "/scratch/Gau-11541.EUF"

---------------------------- SICTWO Version 1.0 STARTED -----------------------------

MM calculations started
MM calculations finished ....
Information recovery

---------------------------- SICTWO Version 1.0 FINISHED -----------------------------

 Recovered energy= 0.834983179960E-02 dipole=     -0.764435156449     -1.314450775963     -0.197895462529
 Energy=    8.349831800E-03 NIter=   0.
 Dipole moment=      -0.764435      -1.314451      -0.197895
 Leave Link  402 at Tue Feb  7 16:26:02 2017, MaxMem=  1048576000 cpu:        14.9
 (Enter /mnt/data/applications/G09/g09/l601.exe)
 Leave Link  601 at Tue Feb  7 16:26:02 2017, MaxMem=  1048576000 cpu:         0.2
 (Enter /mnt/data/applications/G09/g09/l716.exe)
 Dipole        =-7.64435156D-01-1.31445078D+00-1.97895463D-01
 Cartesian Forces:  Max     0.029539176 RMS     0.012816923
 Leave Link  716 at Tue Feb  7 16:26:02 2017, MaxMem=  1048576000 cpu:         0.2
 (Enter /mnt/data/applications/G09/g09/l120.exe)
 SvSCFP did not find density file   528.
 ONIOM: saving gridpoint  1
 ONIOM: restoring gridpoint  3
 ONIOM: calculating energy.
 ONIOM: gridpoint  1 method:  low   system:  model energy:     0.008349831800
 ONIOM: gridpoint  2 method:  high  system:  model energy:  -193.148513385632
 ONIOM: gridpoint  3 method:  low   system:  real  energy:     0.008349831800
 ONIOM: extrapolated energy =    -193.148513385632
 ONIOM: calculating first derivatives.
 ONIOM: calculating electric field derivatives.
 ONIOM: Integrating ONIOM file  4 number   619
 ONIOM: Dipole        =-5.97732273D-01-9.61331672D-01-1.50041771D-01
 ONIOM: Dipole moment (Debye):
    X=    -1.5193    Y=    -2.4435    Z=    -0.3814  Tot=     2.9024
 ONIOM: Integrating ONIOM file  5 number   695
 Nuclear Quadrupole Tensors: 
                 1             2             3             4             5 
      1   0.263303D+00  0.131876D+01 -0.717485D-01  0.109493D+00  0.106842D+00
      2  -0.226777D-01 -0.115884D+01  0.858782D-03  0.792469D-01 -0.155789D+00
      3   0.222814D+00 -0.371892D-01  0.438327D-01  0.588932D-01 -0.277088D+00
      4  -0.463366D-02 -0.198304D+00  0.255887D-02 -0.135824D+00  0.122212D-03
      5   0.110038D+00  0.204918D+00  0.866438D-02  0.194592D+00 -0.609190D-03
      6  -0.486117D+00 -0.128158D+01  0.279157D-01 -0.168387D+00  0.170246D+00
                 6             7             8             9            10 
      1   0.109425D+00  0.269608D-01  0.147754D+00  0.123544D+00  0.000000D+00
      2   0.792759D-01  0.684926D-01 -0.583950D-01 -0.601459D-01  0.000000D+00
      3   0.578897D-01 -0.248776D-01 -0.246278D-01  0.740993D-01  0.000000D+00
      4   0.135653D+00  0.771204D-02  0.780684D-01 -0.127428D+00  0.000000D+00
      5  -0.193703D+00 -0.556413D-02  0.237194D+00 -0.186083D+00  0.000000D+00
      6  -0.167314D+00 -0.208318D-02 -0.123126D+00 -0.197643D+00  0.000000D+00
 Saving ESP charges from gridpoint 2
 Leave Link  120 at Tue Feb  7 16:26:02 2017, MaxMem=  1048576000 cpu:         0.0
 (Enter /mnt/data/applications/G09/g09/l716.exe)
 Dipole        =-5.97732273D-01-9.61331672D-01-1.50041771D-01
 -------------------------------------------------------------------
 Center     Atomic                   Forces (Hartrees/Bohr)
 Number     Number              X              Y              Z
 -------------------------------------------------------------------
      1        6           0.031056224    0.049422007    0.007563083
      2        8          -0.029944659   -0.050394906   -0.007631581
      3        6           0.030636515   -0.011290019    0.001511992
      4        1          -0.005795287    0.009196074   -0.013651242
      5        1          -0.009889243   -0.015181877   -0.000764392
      6        1          -0.005131331    0.009837188    0.012372805
      7        6          -0.014102385    0.028627299    0.002485479
      8        1          -0.004981601   -0.013597465    0.012498786
      9        1          -0.006417630   -0.010973292   -0.014401444
     10        1           0.014569397    0.004354992    0.000016514
 -------------------------------------------------------------------
 Cartesian Forces:  Max     0.050394906 RMS     0.019085288
 Leave Link  716 at Tue Feb  7 16:26:02 2017, MaxMem=  1048576000 cpu:         0.2
 (Enter /mnt/data/applications/G09/g09/l103.exe)

 GradGradGradGradGradGradGradGradGradGradGradGradGradGradGradGradGradGrad
 Berny optimization.
 FormGI is forming the generalized inverse of G from B-inverse, IUseBI=4.
 Internal  Forces:  Max     0.059112166 RMS     0.012665356
 Search for a local minimum.
 Step number   1 out of a maximum of   46
 All quantities printed in internal units (Hartrees-Bohrs-Radians)
 RMS Force = .12665D-01 SwitMx=.10000D-02 MixMth= 1
 Mixed Optimization -- RFO/linear search
 Second derivative matrix not updated -- first step.
 ITU=  0
     Eigenvalues ---    0.00237   0.00237   0.00237   0.07243   0.07243
     Eigenvalues ---    0.07243   0.07243   0.16000   0.16000   0.16000
     Eigenvalues ---    0.16000   0.16000   0.16000   0.25000   0.25000
     Eigenvalues ---    0.28519   0.28519   0.37230   0.37230   0.37230
     Eigenvalues ---    0.37230   0.37230   0.37230   0.80209
 RFO step:  Lambda=-1.10903282D-02 EMin= 2.36824121D-03
 Linear search not attempted -- first point.
 Iteration  1 RMS(Cart)=  0.02870264 RMS(Int)=  0.00039114
 Iteration  2 RMS(Cart)=  0.00035214 RMS(Int)=  0.00011010
 Iteration  3 RMS(Cart)=  0.00000017 RMS(Int)=  0.00011010
 ITry= 1 IFail=0 DXMaxC= 5.97D-02 DCOld= 1.00D+10 DXMaxT= 3.00D-01 DXLimC= 3.00D+00 Rises=F
 Variable       Old X    -DE/DX   Delta X   Delta X   Delta X     New X
                                 (Linear)    (Quad)   (Total)
    R1        2.37803  -0.05911   0.00000  -0.07269  -0.07269   2.30534
    R2        2.91018  -0.00982   0.00000  -0.03314  -0.03314   2.87703
    R3        2.91018  -0.01274   0.00000  -0.04299  -0.04299   2.86719
    R4        2.02201   0.01741   0.00000   0.04542   0.04542   2.06743
    R5        2.02201   0.01761   0.00000   0.04593   0.04593   2.06794
    R6        2.02201   0.01645   0.00000   0.04291   0.04291   2.06491
    R7        2.02201   0.01888   0.00000   0.04925   0.04925   2.07126
    R8        2.02201   0.01889   0.00000   0.04926   0.04926   2.07127
    R9        2.02201   0.01512   0.00000   0.03943   0.03943   2.06144
    A1        2.09241   0.00314   0.00000   0.01204   0.01203   2.10444
    A2        2.09836   0.00449   0.00000   0.01719   0.01718   2.11554
    A3        2.09241  -0.00763   0.00000  -0.02923  -0.02924   2.06317
    A4        1.91063  -0.00157   0.00000  -0.01390  -0.01411   1.89653
    A5        1.91063   0.00724   0.00000   0.04929   0.04917   1.95980
    A6        1.91063  -0.00175   0.00000  -0.01247  -0.01277   1.89786
    A7        1.91063  -0.00193   0.00000  -0.00680  -0.00684   1.90379
    A8        1.91063  -0.00117   0.00000  -0.02076  -0.02117   1.88947
    A9        1.91063  -0.00082   0.00000   0.00463   0.00442   1.91506
   A10        1.91063   0.00142   0.00000   0.00565   0.00567   1.91630
   A11        1.91063   0.00255   0.00000   0.01385   0.01386   1.92449
   A12        1.91063  -0.00233   0.00000  -0.00994  -0.00993   1.90071
   A13        1.91063  -0.00348   0.00000  -0.02768  -0.02766   1.88297
   A14        1.91063   0.00087   0.00000   0.00716   0.00718   1.91781
   A15        1.91063   0.00097   0.00000   0.01096   0.01097   1.92160
    D1        1.19651  -0.00145   0.00000  -0.01257  -0.01241   1.18410
    D2       -2.99228  -0.00034   0.00000   0.00078   0.00072  -2.99156
    D3       -0.89788   0.00202   0.00000   0.02900   0.02892  -0.86896
    D4       -1.94508  -0.00133   0.00000  -0.00384  -0.00369  -1.94877
    D5        0.14931  -0.00022   0.00000   0.00951   0.00943   0.15875
    D6        2.24371   0.00214   0.00000   0.03773   0.03764   2.28135
    D7        2.02617   0.00089   0.00000   0.01755   0.01756   2.04373
    D8       -2.16262  -0.00094   0.00000  -0.00441  -0.00441  -2.16702
    D9       -0.06822   0.00038   0.00000   0.01141   0.01142  -0.05680
   D10       -1.11542   0.00077   0.00000   0.00879   0.00878  -1.10664
   D11        0.97898  -0.00106   0.00000  -0.01317  -0.01319   0.96579
   D12        3.07337   0.00026   0.00000   0.00264   0.00264   3.07601
         Item               Value     Threshold  Converged?
 Maximum Force            0.059112     0.000450     NO 
 RMS     Force            0.012665     0.000300     NO 
 Maximum Displacement     0.059690     0.001800     NO 
 RMS     Displacement     0.028680     0.001200     NO 
 Predicted change in Energy=-5.708637D-03
 Lowest energy point so far.  Saving SCF results.
 GradGradGradGradGradGradGradGradGradGradGradGradGradGradGradGradGradGrad

 Leave Link  103 at Tue Feb  7 16:26:02 2017, MaxMem=  1048576000 cpu:         0.0
 (Enter /mnt/data/applications/G09/g09/l202.exe)
                          Input orientation:                          
 ---------------------------------------------------------------------
 Center     Atomic      Atomic             Coordinates (Angstroms)
 Number     Number       Type             X           Y           Z
 ---------------------------------------------------------------------
      1          6    10061002       -2.357847    0.394294    0.006560
      2          8    10081002       -1.758041    1.445190    0.161752
      3          6    10061003       -3.880014    0.364654    0.002628
      4          1    10011000       -4.237996    0.884856   -0.890764
      5          1    10011000       -4.275264   -0.655777    0.004868
      6          1    10011000       -4.243882    0.903009    0.881138
      7          6    10061003       -1.614500   -0.912374   -0.198630
      8          1    10011000       -1.834681   -1.598372    0.627375
      9          1    10011000       -1.938714   -1.391449   -1.129619
     10          1    10011000       -0.543638   -0.707729   -0.235510
 ---------------------------------------------------------------------
                    Distance matrix (angstroms):
                    1          2          3          4          5
     1  C    0.000000
     2  O    1.219933   0.000000
     3  C    1.522461   2.386556   0.000000
     4  H    2.140280   2.751716   1.094034   0.000000
     5  H    2.186124   3.282543   1.094307   1.782441   0.000000
     6  H    2.140282   2.644028   1.092705   1.772005   1.788476
     7  C    1.517251   2.389265   2.608421   3.254507   2.680843
     8  H    2.151705   3.079927   2.902959   3.774533   2.689321
     9  H    2.157649   3.121987   2.852109   3.244274   2.699581
    10  H    2.136448   2.503528   3.512567   4.076024   3.739722
                    6          7          8          9         10
     6  H    0.000000
     7  C    3.372709   0.000000
     8  H    3.482177   1.096065   0.000000
     9  H    3.823804   1.096069   1.772193   0.000000
    10  H    4.187265   1.090865   1.790142   1.792524   0.000000
 Symmetry turned off by external request.
 Stoichiometry    C3H6O
 Framework group  C1[X(C3H6O)]
 Deg. of freedom    24
 Full point group                 C1      NOp   1
 Rotational constants (GHZ):     10.2645160      8.3205143      4.8759668
 Leave Link  202 at Tue Feb  7 16:26:02 2017, MaxMem=  1048576000 cpu:         0.0
 (Enter /mnt/data/applications/G09/g09/l120.exe)
 SvSCFP did not find density file   528.
 ONIOM: saving gridpoint 17
 ONIOM: restoring gridpoint  3
 ONIOM: restoring gridpoint  3 on chk file.
 ONIOM: generating point  3 -- low level on real system.
 Leave Link  120 at Tue Feb  7 16:26:03 2017, MaxMem=  1048576000 cpu:         0.0
 (Enter /mnt/data/applications/G09/g09/l301.exe)
 Standard basis: STO-3G (5D, 7F)
 Ernie: Thresh=  0.10000D-02 Tol=  0.10000D-05 Strict=F.
    26 basis functions,    78 primitive gaussians,    26 cartesian basis functions
    16 alpha electrons       16 beta electrons
       nuclear repulsion energy       118.9616701187 Hartrees.
 IExCor=    0 DFT=F Ex=HF Corr=None ExCW=0 ScaHFX=  1.000000
 ScaDFX=  1.000000  1.000000  1.000000  1.000000 ScalE2=  1.000000  1.000000
 IRadAn=      0 IRanWt=     -1 IRanGd=            0 ICorTp=0 IEmpDi=  4
 NAtoms=   10 NActive=   10 NUniq=   10 SFac= 1.00D+00 NAtFMM=   60 NAOKFM=F Big=F
 Integral buffers will be    131072 words long.
 Raffenetti 1 integral format.
 Two-electron integral symmetry is turned off.
 Leave Link  301 at Tue Feb  7 16:26:03 2017, MaxMem=  1048576000 cpu:         0.4
 (Enter /mnt/data/applications/G09/g09/l402.exe)
 External calculation of energy and first derivatives.
 Running external command "./sictwo_files/sictwo_g09d01 R"
         input file       "/scratch/Gau-11541.EIn"
         output file      "/scratch/Gau-11541.EOu"
         message file     "/scratch/Gau-11541.EMs"
         fchk file        "/scratch/Gau-11541.EFC"
         mat. el file     "/scratch/Gau-11541.EUF"

---------------------------- SICTWO Version 1.0 STARTED -----------------------------

MM calculations started
MM calculations finished ....
Information recovery

---------------------------- SICTWO Version 1.0 FINISHED -----------------------------

 Recovered energy= 0.485219632480E-02 dipole=     -0.735714741410     -1.286123791267     -0.191207146698
 Energy=    4.852196325E-03 NIter=   0.
 Dipole moment=      -0.735715      -1.286124      -0.191207
 Leave Link  402 at Tue Feb  7 16:26:05 2017, MaxMem=  1048576000 cpu:        17.5
 (Enter /mnt/data/applications/G09/g09/l716.exe)
 Dipole        =-7.35714741D-01-1.28612379D+00-1.91207147D-01
 Cartesian Forces:  Max     0.018306123 RMS     0.005961817
 Leave Link  716 at Tue Feb  7 16:26:05 2017, MaxMem=  1048576000 cpu:         0.2
 (Enter /mnt/data/applications/G09/g09/l120.exe)
 SvSCFP did not find density file   528.
 ONIOM: saving gridpoint  3
 ONIOM: restoring gridpoint  2
 ONIOM: restoring gridpoint  2 on chk file.
 ONIOM: generating point  2 -- high level on model system.
 Leave Link  120 at Tue Feb  7 16:26:05 2017, MaxMem=  1048576000 cpu:         0.0
 (Enter /mnt/data/applications/G09/g09/l301.exe)
 Standard basis: 6-31G(d) (6D, 7F)
 Ernie: Thresh=  0.10000D-02 Tol=  0.10000D-05 Strict=F.
    72 basis functions,   136 primitive gaussians,    72 cartesian basis functions
    16 alpha electrons       16 beta electrons
       nuclear repulsion energy       118.9616701187 Hartrees.
 IExCor=  402 DFT=T Ex+Corr=B3LYP ExCW=0 ScaHFX=  0.200000
 ScaDFX=  0.800000  0.720000  1.000000  0.810000 ScalE2=  1.000000  1.000000
 IRadAn=      0 IRanWt=     -1 IRanGd=            0 ICorTp=0 IEmpDi=  4
 NAtoms=   10 NActive=   10 NUniq=   10 SFac= 1.00D+00 NAtFMM=   60 NAOKFM=F Big=F
 Integral buffers will be    131072 words long.
 Raffenetti 2 integral format.
 Two-electron integral symmetry is turned off.
 Leave Link  301 at Tue Feb  7 16:26:06 2017, MaxMem=  1048576000 cpu:         0.5
 (Enter /mnt/data/applications/G09/g09/l302.exe)
 NPDir=0 NMtPBC=     1 NCelOv=     1 NCel=       1 NClECP=     1 NCelD=      1
         NCelK=      1 NCelE2=     1 NClLst=     1 CellRange=     0.0.
 One-electron integrals computed using PRISM.
 NBasis=    72 RedAO= T EigKep=  4.87D-03  NBF=    72
 NBsUse=    72 1.00D-06 EigRej= -1.00D+00 NBFU=    72
 Precomputing XC quadrature grid using
 IXCGrd= 4 IRadAn=           0 IRanWt=          -1 IRanGd=           0 AccXCQ= 0.00D+00.
 Generated NRdTot=       0 NPtTot=           0 NUsed=           0 NTot=          32
 NSgBfM=    72    72    72    72    72 MxSgAt=    10 MxSgA2=    10.
 Leave Link  302 at Tue Feb  7 16:26:06 2017, MaxMem=  1048576000 cpu:         1.3
 (Enter /mnt/data/applications/G09/g09/l303.exe)
 DipDrv:  MaxL=1.
 Leave Link  303 at Tue Feb  7 16:26:06 2017, MaxMem=  1048576000 cpu:         0.2
 (Enter /mnt/data/applications/G09/g09/l401.exe)
 Initial guess from the checkpoint file:  "C_1.chk"
 B after Tr=     0.002123    0.010386   -0.000509
         Rot=    0.999999   -0.000645   -0.000257   -0.001531 Ang=  -0.19 deg.
 Guess basis will be translated and rotated to current coordinates.
 JPrj=2 DoOrth=T DoCkMO=T.
 Generating alternative initial guess.
 ExpMin= 1.61D-01 ExpMax= 5.48D+03 ExpMxC= 8.25D+02 IAcc=1 IRadAn=         1 AccDes= 0.00D+00
 Harris functional with IExCor=  402 and IRadAn=       1 diagonalized for initial guess.
 HarFok:  IExCor=  402 AccDes= 0.00D+00 IRadAn=         1 IDoV= 1 UseB2=F ITyADJ=14
 ICtDFT=  3500011 ScaDFX=  1.000000  1.000000  1.000000  1.000000
 FoFCou: FMM=F IPFlag=           0 FMFlag=      100000 FMFlg1=           0
         NFxFlg=           0 DoJE=T BraDBF=F KetDBF=T FulRan=T
         wScrn=  0.000000 ICntrl=     500 IOpCl=  0 I1Cent=   200000004 NGrid=           0
         NMat0=    1 NMatS0=      1 NMatT0=    0 NMatD0=    1 NMtDS0=    0 NMtDT0=    0
 Symmetry not used in FoFCou.
 Harris En= -193.202902390846    
 Leave Link  401 at Tue Feb  7 16:26:06 2017, MaxMem=  1048576000 cpu:         2.5
 (Enter /mnt/data/applications/G09/g09/l502.exe)
 Closed shell SCF:
 Using DIIS extrapolation, IDIIS=  1040.
 Two-electron integral symmetry not used.
 Keep R1 ints in memory in canonical form, NReq=4377122.
 IVT=       28606 IEndB=       28606 NGot=  1048576000 MDV=  1045092889
 LenX=  1045092889 LenY=  1045087264
 Requested convergence on RMS density matrix=1.00D-08 within 100 cycles.
 Requested convergence on MAX density matrix=1.00D-06.
 Requested convergence on             energy=1.00D-06.
 No special actions if energy rises.
 FoFCou: FMM=F IPFlag=           0 FMFlag=           0 FMFlg1=           0
         NFxFlg=           0 DoJE=F BraDBF=F KetDBF=F FulRan=T
         wScrn=  0.000000 ICntrl=     600 IOpCl=  0 I1Cent=           0 NGrid=           0
         NMat0=    1 NMatS0=   2628 NMatT0=    0 NMatD0=    1 NMtDS0=    0 NMtDT0=    0
 Symmetry not used in FoFCou.
 Integral accuracy reduced to 1.0D-05 until final iterations.

 Cycle   1  Pass 0  IDiag  1:
 E= -193.152694859568    
 DIIS: error= 3.82D-03 at cycle   1 NSaved=   1.
 NSaved= 1 IEnMin= 1 EnMin= -193.152694859568     IErMin= 1 ErrMin= 3.82D-03
 ErrMax= 3.82D-03  0.00D+00 EMaxC= 1.00D-01 BMatC= 1.32D-03 BMatP= 1.32D-03
 IDIUse=3 WtCom= 9.62D-01 WtEn= 3.82D-02
 Coeff-Com:  0.100D+01
 Coeff-En:   0.100D+01
 Coeff:      0.100D+01
 Gap=     1.916 Goal=   None    Shift=    0.000
 GapD=    1.916 DampG=2.000 DampE=1.000 DampFc=2.0000 IDamp=-1.
 RMSDP=8.34D-04 MaxDP=1.08D-02              OVMax= 1.46D-02

 Cycle   2  Pass 0  IDiag  1:
 E= -193.153971546722     Delta-E=       -0.001276687155 Rises=F Damp=F
 DIIS: error= 2.75D-03 at cycle   2 NSaved=   2.
 NSaved= 2 IEnMin= 2 EnMin= -193.153971546722     IErMin= 2 ErrMin= 2.75D-03
 ErrMax= 2.75D-03  0.00D+00 EMaxC= 1.00D-01 BMatC= 6.31D-04 BMatP= 1.32D-03
 IDIUse=3 WtCom= 9.73D-01 WtEn= 2.75D-02
 Coeff-Com:  0.376D+00 0.624D+00
 Coeff-En:   0.000D+00 0.100D+01
 Coeff:      0.366D+00 0.634D+00
 Gap=     0.229 Goal=   None    Shift=    0.000
 RMSDP=5.09D-04 MaxDP=7.54D-03 DE=-1.28D-03 OVMax= 1.22D-02

 Cycle   3  Pass 0  IDiag  1:
 E= -193.154270673867     Delta-E=       -0.000299127145 Rises=F Damp=F
 DIIS: error= 2.27D-03 at cycle   3 NSaved=   3.
 NSaved= 3 IEnMin= 3 EnMin= -193.154270673867     IErMin= 3 ErrMin= 2.27D-03
 ErrMax= 2.27D-03  0.00D+00 EMaxC= 1.00D-01 BMatC= 3.15D-04 BMatP= 6.31D-04
 IDIUse=3 WtCom= 9.77D-01 WtEn= 2.27D-02
 Coeff-Com:  0.484D-01 0.407D+00 0.544D+00
 Coeff-En:   0.000D+00 0.335D+00 0.665D+00
 Coeff:      0.473D-01 0.405D+00 0.547D+00
 Gap=     0.232 Goal=   None    Shift=    0.000
 RMSDP=2.71D-04 MaxDP=5.61D-03 DE=-2.99D-04 OVMax= 9.24D-03

 Cycle   4  Pass 0  IDiag  1:
 E= -193.154480049766     Delta-E=       -0.000209375899 Rises=F Damp=F
 DIIS: error= 1.16D-03 at cycle   4 NSaved=   4.
 NSaved= 4 IEnMin= 4 EnMin= -193.154480049766     IErMin= 4 ErrMin= 1.16D-03
 ErrMax= 1.16D-03  0.00D+00 EMaxC= 1.00D-01 BMatC= 6.43D-05 BMatP= 3.15D-04
 IDIUse=3 WtCom= 9.88D-01 WtEn= 1.16D-02
 Coeff-Com: -0.130D-01 0.200D+00 0.380D+00 0.433D+00
 Coeff-En:   0.000D+00 0.000D+00 0.152D+00 0.848D+00
 Coeff:     -0.129D-01 0.198D+00 0.377D+00 0.438D+00
 Gap=     0.230 Goal=   None    Shift=    0.000
 RMSDP=7.49D-05 MaxDP=1.58D-03 DE=-2.09D-04 OVMax= 2.49D-03

 Cycle   5  Pass 0  IDiag  1:
 E= -193.154530501534     Delta-E=       -0.000050451767 Rises=F Damp=F
 DIIS: error= 2.85D-05 at cycle   5 NSaved=   5.
 NSaved= 5 IEnMin= 5 EnMin= -193.154530501534     IErMin= 5 ErrMin= 2.85D-05
 ErrMax= 2.85D-05  0.00D+00 EMaxC= 1.00D-01 BMatC= 8.19D-08 BMatP= 6.43D-05
 IDIUse=1 WtCom= 1.00D+00 WtEn= 0.00D+00
 Coeff-Com: -0.300D-02 0.135D-01 0.426D-01 0.530D-01 0.894D+00
 Coeff:     -0.300D-02 0.135D-01 0.426D-01 0.530D-01 0.894D+00
 Gap=     0.230 Goal=   None    Shift=    0.000
 RMSDP=7.31D-06 MaxDP=9.26D-05 DE=-5.05D-05 OVMax= 1.29D-04

 Initial convergence to 1.0D-05 achieved.  Increase integral accuracy.
 Cycle   6  Pass 1  IDiag  1:
 E= -193.154529948669     Delta-E=        0.000000552865 Rises=F Damp=F
 DIIS: error= 7.47D-06 at cycle   1 NSaved=   1.
 NSaved= 1 IEnMin= 1 EnMin= -193.154529948669     IErMin= 1 ErrMin= 7.47D-06
 ErrMax= 7.47D-06  0.00D+00 EMaxC= 1.00D-01 BMatC= 6.93D-09 BMatP= 6.93D-09
 IDIUse=1 WtCom= 1.00D+00 WtEn= 0.00D+00
 Coeff-Com:  0.100D+01
 Coeff:      0.100D+01
 Gap=     0.230 Goal=   None    Shift=    0.000
 RMSDP=7.31D-06 MaxDP=9.26D-05 DE= 5.53D-07 OVMax= 4.91D-05

 Cycle   7  Pass 1  IDiag  1:
 E= -193.154529952920     Delta-E=       -0.000000004251 Rises=F Damp=F
 DIIS: error= 1.08D-05 at cycle   2 NSaved=   2.
 NSaved= 2 IEnMin= 2 EnMin= -193.154529952920     IErMin= 1 ErrMin= 7.47D-06
 ErrMax= 1.08D-05  0.00D+00 EMaxC= 1.00D-01 BMatC= 5.43D-09 BMatP= 6.93D-09
 IDIUse=1 WtCom= 1.00D+00 WtEn= 0.00D+00
 Coeff-Com:  0.458D+00 0.542D+00
 Coeff:      0.458D+00 0.542D+00
 Gap=     0.230 Goal=   None    Shift=    0.000
 RMSDP=1.43D-06 MaxDP=2.50D-05 DE=-4.25D-09 OVMax= 4.48D-05

 Cycle   8  Pass 1  IDiag  1:
 E= -193.154529955813     Delta-E=       -0.000000002893 Rises=F Damp=F
 DIIS: error= 7.48D-06 at cycle   3 NSaved=   3.
 NSaved= 3 IEnMin= 3 EnMin= -193.154529955813     IErMin= 1 ErrMin= 7.47D-06
 ErrMax= 7.48D-06  0.00D+00 EMaxC= 1.00D-01 BMatC= 2.81D-09 BMatP= 5.43D-09
 IDIUse=1 WtCom= 1.00D+00 WtEn= 0.00D+00
 Coeff-Com:  0.109D+00 0.395D+00 0.496D+00
 Coeff:      0.109D+00 0.395D+00 0.496D+00
 Gap=     0.230 Goal=   None    Shift=    0.000
 RMSDP=5.98D-07 MaxDP=1.42D-05 DE=-2.89D-09 OVMax= 2.13D-05

 Cycle   9  Pass 1  IDiag  1:
 E= -193.154529957867     Delta-E=       -0.000000002054 Rises=F Damp=F
 DIIS: error= 1.32D-06 at cycle   4 NSaved=   4.
 NSaved= 4 IEnMin= 4 EnMin= -193.154529957867     IErMin= 4 ErrMin= 1.32D-06
 ErrMax= 1.32D-06  0.00D+00 EMaxC= 1.00D-01 BMatC= 9.82D-11 BMatP= 2.81D-09
 IDIUse=1 WtCom= 1.00D+00 WtEn= 0.00D+00
 Coeff-Com: -0.627D-02 0.127D+00 0.225D+00 0.654D+00
 Coeff:     -0.627D-02 0.127D+00 0.225D+00 0.654D+00
 Gap=     0.230 Goal=   None    Shift=    0.000
 RMSDP=1.59D-07 MaxDP=2.03D-06 DE=-2.05D-09 OVMax= 2.91D-06

 Cycle  10  Pass 1  IDiag  1:
 E= -193.154529957946     Delta-E=       -0.000000000079 Rises=F Damp=F
 DIIS: error= 2.52D-07 at cycle   5 NSaved=   5.
 NSaved= 5 IEnMin= 5 EnMin= -193.154529957946     IErMin= 5 ErrMin= 2.52D-07
 ErrMax= 2.52D-07  0.00D+00 EMaxC= 1.00D-01 BMatC= 4.34D-12 BMatP= 9.82D-11
 IDIUse=1 WtCom= 1.00D+00 WtEn= 0.00D+00
 Coeff-Com: -0.696D-02 0.362D-01 0.675D-01 0.275D+00 0.628D+00
 Coeff:     -0.696D-02 0.362D-01 0.675D-01 0.275D+00 0.628D+00
 Gap=     0.230 Goal=   None    Shift=    0.000
 RMSDP=3.84D-08 MaxDP=4.85D-07 DE=-7.94D-11 OVMax= 6.96D-07

 Cycle  11  Pass 1  IDiag  1:
 E= -193.154529957953     Delta-E=       -0.000000000006 Rises=F Damp=F
 DIIS: error= 2.95D-08 at cycle   6 NSaved=   6.
 NSaved= 6 IEnMin= 6 EnMin= -193.154529957953     IErMin= 6 ErrMin= 2.95D-08
 ErrMax= 2.95D-08  0.00D+00 EMaxC= 1.00D-01 BMatC= 8.65D-14 BMatP= 4.34D-12
 IDIUse=1 WtCom= 1.00D+00 WtEn= 0.00D+00
 Coeff-Com: -0.106D-02 0.548D-03 0.129D-03 0.174D-01 0.117D+00 0.866D+00
 Coeff:     -0.106D-02 0.548D-03 0.129D-03 0.174D-01 0.117D+00 0.866D+00
 Gap=     0.230 Goal=   None    Shift=    0.000
 RMSDP=9.28D-09 MaxDP=1.10D-07 DE=-6.48D-12 OVMax= 3.94D-07

 SCF Done:  E(RB3LYP) =  -193.154529958     A.U. after   11 cycles
            NFock= 11  Conv=0.93D-08     -V/T= 2.0094
 KE= 1.913505710575D+02 PE=-6.879336403230D+02 EE= 1.844668691888D+02
 Leave Link  502 at Tue Feb  7 16:26:08 2017, MaxMem=  1048576000 cpu:        11.9
 (Enter /mnt/data/applications/G09/g09/l701.exe)
 Compute integral first derivatives.
 ... and contract with generalized density number  0.
 Leave Link  701 at Tue Feb  7 16:26:08 2017, MaxMem=  1048576000 cpu:         1.2
 (Enter /mnt/data/applications/G09/g09/l702.exe)
 L702 exits ... SP integral derivatives will be done elsewhere.
 Leave Link  702 at Tue Feb  7 16:26:08 2017, MaxMem=  1048576000 cpu:         0.2
 (Enter /mnt/data/applications/G09/g09/l703.exe)
 Compute integral first derivatives, UseDBF=F ICtDFT=           0.
 Integral derivatives from FoFJK, PRISM(SPDF).
 Calling FoFJK, ICntrl=      2127 FMM=F ISym2X=0 I1Cent= 0 IOpClX= 0 NMat=1 NMatS=1 NMatT=0.
 FoFJK:  IHMeth= 1 ICntrl=    2127 DoSepK=F KAlg= 0 I1Cent=   0 FoldK=F
 IRaf=         0 NMat=   1 IRICut=       1 DoRegI=T DoRafI=F ISym2E= 0.
 FoFCou: FMM=F IPFlag=           0 FMFlag=      100000 FMFlg1=         800
         NFxFlg=           0 DoJE=F BraDBF=F KetDBF=F FulRan=T
         wScrn=  0.000000 ICntrl=    2127 IOpCl=  0 I1Cent=           0 NGrid=           0
         NMat0=    1 NMatS0=      1 NMatT0=    0 NMatD0=    1 NMtDS0=    0 NMtDT0=    0
 Symmetry not used in FoFCou.
 Leave Link  703 at Tue Feb  7 16:26:09 2017, MaxMem=  1048576000 cpu:         4.0
 (Enter /mnt/data/applications/G09/g09/l716.exe)
 Dipole        =-5.63518683D-01-9.09404150D-01-1.44605837D-01
 Cartesian Forces:  Max     0.007480016 RMS     0.002402741
 Leave Link  716 at Tue Feb  7 16:26:09 2017, MaxMem=  1048576000 cpu:         0.2
 (Enter /mnt/data/applications/G09/g09/l120.exe)
 SvSCFP is copying densities from files   528 and   530 to   603.
 ONIOM: saving gridpoint  2
 ONIOM: restoring gridpoint  1
 ONIOM: restoring gridpoint  1 on chk file.
 ONIOM: generating point  1 -- low level on model system.
 Leave Link  120 at Tue Feb  7 16:26:09 2017, MaxMem=  1048576000 cpu:         0.2
 (Enter /mnt/data/applications/G09/g09/l301.exe)
 Standard basis: STO-3G (5D, 7F)
 Ernie: Thresh=  0.10000D-02 Tol=  0.10000D-05 Strict=F.
    26 basis functions,    78 primitive gaussians,    26 cartesian basis functions
    16 alpha electrons       16 beta electrons
       nuclear repulsion energy       118.9616701187 Hartrees.
 IExCor=    0 DFT=F Ex=HF Corr=None ExCW=0 ScaHFX=  1.000000
 ScaDFX=  1.000000  1.000000  1.000000  1.000000 ScalE2=  1.000000  1.000000
 IRadAn=      0 IRanWt=     -1 IRanGd=            0 ICorTp=0 IEmpDi=  4
 NAtoms=   10 NActive=   10 NUniq=   10 SFac= 1.00D+00 NAtFMM=   60 NAOKFM=F Big=F
 Integral buffers will be    131072 words long.
 Raffenetti 1 integral format.
 Two-electron integral symmetry is turned off.
 Leave Link  301 at Tue Feb  7 16:26:09 2017, MaxMem=  1048576000 cpu:         0.4
 (Enter /mnt/data/applications/G09/g09/l402.exe)
 External calculation of energy and first derivatives.
 Running external command "./sictwo_files/sictwo_g09d01 M"
         input file       "/scratch/Gau-11541.EIn"
         output file      "/scratch/Gau-11541.EOu"
         message file     "/scratch/Gau-11541.EMs"
         fchk file        "/scratch/Gau-11541.EFC"
         mat. el file     "/scratch/Gau-11541.EUF"

---------------------------- SICTWO Version 1.0 STARTED -----------------------------

MM calculations started
MM calculations finished ....
Information recovery

---------------------------- SICTWO Version 1.0 FINISHED -----------------------------

 Recovered energy= 0.485219632480E-02 dipole=     -0.735714741410     -1.286123791267     -0.191207146698
 Energy=    4.852196325E-03 NIter=   0.
 Dipole moment=      -0.735715      -1.286124      -0.191207
 Leave Link  402 at Tue Feb  7 16:26:12 2017, MaxMem=  1048576000 cpu:        17.3
 (Enter /mnt/data/applications/G09/g09/l716.exe)
 Dipole        =-7.35714741D-01-1.28612379D+00-1.91207147D-01
 Cartesian Forces:  Max     0.018306123 RMS     0.005961817
 Leave Link  716 at Tue Feb  7 16:26:12 2017, MaxMem=  1048576000 cpu:         0.2
 (Enter /mnt/data/applications/G09/g09/l120.exe)
 SvSCFP did not find density file   528.
 ONIOM: saving gridpoint  1
 ONIOM: restoring gridpoint  3
 ONIOM: calculating energy.
 ONIOM: gridpoint  1 method:  low   system:  model energy:     0.004852196325
 ONIOM: gridpoint  2 method:  high  system:  model energy:  -193.154529957953
 ONIOM: gridpoint  3 method:  low   system:  real  energy:     0.004852196325
 ONIOM: extrapolated energy =    -193.154529957953
 ONIOM: calculating first derivatives.
 ONIOM: calculating electric field derivatives.
 ONIOM: Integrating ONIOM file  4 number   619
 ONIOM: Dipole        =-5.63518683D-01-9.09404150D-01-1.44605837D-01
 ONIOM: Dipole moment (Debye):
    X=    -1.4323    Y=    -2.3115    Z=    -0.3676  Tot=     2.7440
 ONIOM: Integrating ONIOM file  5 number   695
 Leave Link  120 at Tue Feb  7 16:26:12 2017, MaxMem=  1048576000 cpu:         0.0
 (Enter /mnt/data/applications/G09/g09/l716.exe)
 Dipole        =-5.63518683D-01-9.09404150D-01-1.44605837D-01
 -------------------------------------------------------------------
 Center     Atomic                   Forces (Hartrees/Bohr)
 Number     Number              X              Y              Z
 -------------------------------------------------------------------
      1        6           0.005444209    0.007480016    0.000444290
      2        8          -0.003227381   -0.004200293   -0.000304428
      3        6           0.002821634   -0.004450796    0.001175229
      4        1          -0.001397136    0.000773177   -0.000528311
      5        1          -0.001332535    0.000656396   -0.000210334
      6        1          -0.001573366    0.001165236   -0.000184027
      7        6          -0.001039567    0.003386909   -0.000137274
      8        1          -0.000258753   -0.001782480   -0.000235716
      9        1          -0.000195291   -0.001719367    0.000037533
     10        1           0.000758185   -0.001308798   -0.000056963
 -------------------------------------------------------------------
 Cartesian Forces:  Max     0.007480016 RMS     0.002402741
 Leave Link  716 at Tue Feb  7 16:26:12 2017, MaxMem=  1048576000 cpu:         0.2
 (Enter /mnt/data/applications/G09/g09/l103.exe)

 GradGradGradGradGradGradGradGradGradGradGradGradGradGradGradGradGradGrad
 Berny optimization.
 Using GEDIIS/GDIIS optimizer.
 FormGI is forming the generalized inverse of G from B-inverse, IUseBI=4.
 Internal  Forces:  Max     0.005243837 RMS     0.001457056
 Search for a local minimum.
 Step number   2 out of a maximum of   46
 All quantities printed in internal units (Hartrees-Bohrs-Radians)
 RMS Force = .14571D-02 SwitMx=.10000D-02 MixMth= 1
 Mixed Optimization -- RFO/linear search
 Update second derivatives using D2CorX and points    1    2
 DE= -6.02D-03 DEPred=-5.71D-03 R= 1.05D+00
 TightC=F SS=  1.41D+00  RLast= 1.72D-01 DXNew= 5.0454D-01 5.1725D-01
 Trust test= 1.05D+00 RLast= 1.72D-01 DXMaxT set to 5.05D-01
 ITU=  1  0
 Use linear search instead of GDIIS.
     Eigenvalues ---    0.00237   0.00237   0.00237   0.06883   0.07111
     Eigenvalues ---    0.07231   0.07357   0.15525   0.16000   0.16000
     Eigenvalues ---    0.16000   0.16000   0.16230   0.24358   0.25005
     Eigenvalues ---    0.28509   0.29215   0.37036   0.37230   0.37230
     Eigenvalues ---    0.37230   0.37230   0.38251   0.77188
 RFO step:  Lambda=-3.49026004D-04 EMin= 2.36647287D-03
 Quartic linear search produced a step of  0.08094.
 Iteration  1 RMS(Cart)=  0.03018764 RMS(Int)=  0.00059373
 Iteration  2 RMS(Cart)=  0.00066732 RMS(Int)=  0.00008454
 Iteration  3 RMS(Cart)=  0.00000035 RMS(Int)=  0.00008454
 ITry= 1 IFail=0 DXMaxC= 8.67D-02 DCOld= 1.00D+10 DXMaxT= 5.05D-01 DXLimC= 3.00D+00 Rises=F
 Variable       Old X    -DE/DX   Delta X   Delta X   Delta X     New X
                                 (Linear)    (Quad)   (Total)
    R1        2.30534  -0.00524  -0.00588  -0.00304  -0.00892   2.29642
    R2        2.87703   0.00152  -0.00268   0.00770   0.00502   2.88205
    R3        2.86719   0.00092  -0.00348   0.00602   0.00254   2.86973
    R4        2.06743   0.00126   0.00368   0.00102   0.00470   2.07212
    R5        2.06794  -0.00013   0.00372  -0.00304   0.00068   2.06862
    R6        2.06491   0.00095   0.00347   0.00028   0.00375   2.06866
    R7        2.07126   0.00099   0.00399   0.00003   0.00401   2.07527
    R8        2.07127   0.00078   0.00399  -0.00059   0.00340   2.07467
    R9        2.06144   0.00050   0.00319  -0.00083   0.00236   2.06380
    A1        2.10444   0.00070   0.00097   0.00240   0.00316   2.10761
    A2        2.11554   0.00242   0.00139   0.00951   0.01068   2.12622
    A3        2.06317  -0.00312  -0.00237  -0.01161  -0.01419   2.04898
    A4        1.89653   0.00065  -0.00114   0.00308   0.00190   1.89843
    A5        1.95980   0.00190   0.00398   0.01195   0.01583   1.97563
    A6        1.89786   0.00134  -0.00103   0.00989   0.00875   1.90662
    A7        1.90379  -0.00125  -0.00055  -0.00782  -0.00841   1.89538
    A8        1.88947  -0.00173  -0.00171  -0.01515  -0.01690   1.87257
    A9        1.91506  -0.00102   0.00036  -0.00288  -0.00269   1.91237
   A10        1.91630   0.00095   0.00046   0.00425   0.00467   1.92097
   A11        1.92449   0.00101   0.00112   0.00470   0.00577   1.93026
   A12        1.90071   0.00192  -0.00080   0.01657   0.01567   1.91638
   A13        1.88297  -0.00192  -0.00224  -0.01720  -0.01944   1.86353
   A14        1.91781  -0.00104   0.00058  -0.00498  -0.00448   1.91333
   A15        1.92160  -0.00095   0.00089  -0.00366  -0.00288   1.91872
    D1        1.18410  -0.00014  -0.00100   0.07214   0.07109   1.25520
    D2       -2.99156  -0.00006   0.00006   0.07203   0.07199  -2.91957
    D3       -0.86896   0.00081   0.00234   0.08300   0.08535  -0.78361
    D4       -1.94877  -0.00023  -0.00030   0.03353   0.03328  -1.91549
    D5        0.15875  -0.00015   0.00076   0.03342   0.03418   0.19293
    D6        2.28135   0.00072   0.00305   0.04439   0.04753   2.32888
    D7        2.04373   0.00055   0.00142   0.00183   0.00324   2.04697
    D8       -2.16702  -0.00061  -0.00036  -0.01381  -0.01425  -2.18127
    D9       -0.05680   0.00007   0.00092  -0.00489  -0.00400  -0.06080
   D10       -1.10664   0.00063   0.00071   0.04066   0.04145  -1.06519
   D11        0.96579  -0.00053  -0.00107   0.02502   0.02396   0.98975
   D12        3.07601   0.00014   0.00021   0.03394   0.03421   3.11022
         Item               Value     Threshold  Converged?
 Maximum Force            0.005244     0.000450     NO 
 RMS     Force            0.001457     0.000300     NO 
 Maximum Displacement     0.086678     0.001800     NO 
 RMS     Displacement     0.030235     0.001200     NO 
 Predicted change in Energy=-2.188008D-04
 Lowest energy point so far.  Saving SCF results.
 GradGradGradGradGradGradGradGradGradGradGradGradGradGradGradGradGradGrad

 Leave Link  103 at Tue Feb  7 16:26:12 2017, MaxMem=  1048576000 cpu:         0.0
 (Enter /mnt/data/applications/G09/g09/l202.exe)
                          Input orientation:                          
 ---------------------------------------------------------------------
 Center     Atomic      Atomic             Coordinates (Angstroms)
 Number     Number       Type             X           Y           Z
 ---------------------------------------------------------------------
      1          6    10061002       -2.350085    0.406205    0.001486
      2          8    10081002       -1.759053    1.451514    0.187900
      3          6    10061003       -3.874486    0.360112    0.008782
      4          1    10011000       -4.246529    0.844968   -0.901631
      5          1    10011000       -4.274858   -0.657846    0.050737
      6          1    10011000       -4.248760    0.936747    0.860694
      7          6    10061003       -1.612312   -0.904548   -0.207693
      8          1    10011000       -1.857514   -1.607843    0.599319
      9          1    10011000       -1.925739   -1.378491   -1.147082
     10          1    10011000       -0.535242   -0.724517   -0.222712
 ---------------------------------------------------------------------
                    Distance matrix (angstroms):
                    1          2          3          4          5
     1  C    0.000000
     2  O    1.215212   0.000000
     3  C    1.525115   2.387110   0.000000
     4  H    2.145842   2.782537   1.096519   0.000000
     5  H    2.199859   3.285953   1.094667   1.779398   0.000000
     6  H    2.150507   2.629882   1.094689   1.764715   1.788697
     7  C    1.518597   2.393545   2.600703   3.237508   2.686410
     8  H    2.157873   3.088467   2.879194   3.738519   2.654617
     9  H    2.164351   3.133510   2.855937   3.223365   2.733580
    10  H    2.149989   2.530104   3.518602   4.086303   3.750193
                    6          7          8          9         10
     6  H    0.000000
     7  C    3.388610   0.000000
     8  H    3.501616   1.098188   0.000000
     9  H    3.845506   1.097866   1.762718   0.000000
    10  H    4.209963   1.092116   1.790084   1.793216   0.000000
 Symmetry turned off by external request.
 Stoichiometry    C3H6O
 Framework group  C1[X(C3H6O)]
 Deg. of freedom    24
 Full point group                 C1      NOp   1
 Rotational constants (GHZ):     10.2057196      8.3467774      4.8688504
 Leave Link  202 at Tue Feb  7 16:26:12 2017, MaxMem=  1048576000 cpu:         0.0
 (Enter /mnt/data/applications/G09/g09/l120.exe)
 SvSCFP did not find density file   528.
 ONIOM: saving gridpoint 17
 ONIOM: restoring gridpoint  3
 ONIOM: restoring gridpoint  3 on chk file.
 ONIOM: generating point  3 -- low level on real system.
 Leave Link  120 at Tue Feb  7 16:26:12 2017, MaxMem=  1048576000 cpu:         0.0
 (Enter /mnt/data/applications/G09/g09/l301.exe)
 Standard basis: STO-3G (5D, 7F)
 Ernie: Thresh=  0.10000D-02 Tol=  0.10000D-05 Strict=F.
    26 basis functions,    78 primitive gaussians,    26 cartesian basis functions
    16 alpha electrons       16 beta electrons
       nuclear repulsion energy       118.9159086594 Hartrees.
 IExCor=    0 DFT=F Ex=HF Corr=None ExCW=0 ScaHFX=  1.000000
 ScaDFX=  1.000000  1.000000  1.000000  1.000000 ScalE2=  1.000000  1.000000
 IRadAn=      0 IRanWt=     -1 IRanGd=            0 ICorTp=0 IEmpDi=  4
 NAtoms=   10 NActive=   10 NUniq=   10 SFac= 1.00D+00 NAtFMM=   60 NAOKFM=F Big=F
 Integral buffers will be    131072 words long.
 Raffenetti 1 integral format.
 Two-electron integral symmetry is turned off.
 Leave Link  301 at Tue Feb  7 16:26:12 2017, MaxMem=  1048576000 cpu:         0.4
 (Enter /mnt/data/applications/G09/g09/l402.exe)
 External calculation of energy and first derivatives.
 Running external command "./sictwo_files/sictwo_g09d01 R"
         input file       "/scratch/Gau-11541.EIn"
         output file      "/scratch/Gau-11541.EOu"
         message file     "/scratch/Gau-11541.EMs"
         fchk file        "/scratch/Gau-11541.EFC"
         mat. el file     "/scratch/Gau-11541.EUF"

---------------------------- SICTWO Version 1.0 STARTED -----------------------------

MM calculations started
MM calculations finished ....
Information recovery

---------------------------- SICTWO Version 1.0 FINISHED -----------------------------

 Recovered energy= 0.533234830610E-02 dipole=     -0.727452704207     -1.282189487837     -0.224255295510
 Energy=    5.332348306E-03 NIter=   0.
 Dipole moment=      -0.727453      -1.282189      -0.224255
 Leave Link  402 at Tue Feb  7 16:26:15 2017, MaxMem=  1048576000 cpu:        15.6
 (Enter /mnt/data/applications/G09/g09/l716.exe)
 Dipole        =-7.27452704D-01-1.28218949D+00-2.24255296D-01
 Cartesian Forces:  Max     0.027011056 RMS     0.008011727
 Leave Link  716 at Tue Feb  7 16:26:15 2017, MaxMem=  1048576000 cpu:         0.2
 (Enter /mnt/data/applications/G09/g09/l120.exe)
 SvSCFP did not find density file   528.
 ONIOM: saving gridpoint  3
 ONIOM: restoring gridpoint  2
 ONIOM: restoring gridpoint  2 on chk file.
 ONIOM: generating point  2 -- high level on model system.
 Leave Link  120 at Tue Feb  7 16:26:15 2017, MaxMem=  1048576000 cpu:         0.0
 (Enter /mnt/data/applications/G09/g09/l301.exe)
 Standard basis: 6-31G(d) (6D, 7F)
 Ernie: Thresh=  0.10000D-02 Tol=  0.10000D-05 Strict=F.
    72 basis functions,   136 primitive gaussians,    72 cartesian basis functions
    16 alpha electrons       16 beta electrons
       nuclear repulsion energy       118.9159086594 Hartrees.
 IExCor=  402 DFT=T Ex+Corr=B3LYP ExCW=0 ScaHFX=  0.200000
 ScaDFX=  0.800000  0.720000  1.000000  0.810000 ScalE2=  1.000000  1.000000
 IRadAn=      0 IRanWt=     -1 IRanGd=            0 ICorTp=0 IEmpDi=  4
 NAtoms=   10 NActive=   10 NUniq=   10 SFac= 1.00D+00 NAtFMM=   60 NAOKFM=F Big=F
 Integral buffers will be    131072 words long.
 Raffenetti 2 integral format.
 Two-electron integral symmetry is turned off.
 Leave Link  301 at Tue Feb  7 16:26:15 2017, MaxMem=  1048576000 cpu:         0.5
 (Enter /mnt/data/applications/G09/g09/l302.exe)
 NPDir=0 NMtPBC=     1 NCelOv=     1 NCel=       1 NClECP=     1 NCelD=      1
         NCelK=      1 NCelE2=     1 NClLst=     1 CellRange=     0.0.
 One-electron integrals computed using PRISM.
 NBasis=    72 RedAO= T EigKep=  4.78D-03  NBF=    72
 NBsUse=    72 1.00D-06 EigRej= -1.00D+00 NBFU=    72
 Precomputing XC quadrature grid using
 IXCGrd= 4 IRadAn=           0 IRanWt=          -1 IRanGd=           0 AccXCQ= 0.00D+00.
 Generated NRdTot=       0 NPtTot=           0 NUsed=           0 NTot=          32
 NSgBfM=    72    72    72    72    72 MxSgAt=    10 MxSgA2=    10.
 Leave Link  302 at Tue Feb  7 16:26:15 2017, MaxMem=  1048576000 cpu:         1.3
 (Enter /mnt/data/applications/G09/g09/l303.exe)
 DipDrv:  MaxL=1.
 Leave Link  303 at Tue Feb  7 16:26:15 2017, MaxMem=  1048576000 cpu:         0.2
 (Enter /mnt/data/applications/G09/g09/l401.exe)
 Initial guess from the checkpoint file:  "C_1.chk"
 B after Tr=     0.004822    0.014043    0.013603
         Rot=    0.999990   -0.004299    0.000998   -0.000786 Ang=  -0.51 deg.
 Guess basis will be translated and rotated to current coordinates.
[...]
 RMSDP=5.45D-08 MaxDP=8.93D-07 DE=-2.72D-10 OVMax= 1.28D-06

 Cycle   6  Pass 1  IDiag  1:
 E= -193.155692884032     Delta-E=       -0.000000000020 Rises=F Damp=F
 DIIS: error= 5.37D-08 at cycle   6 NSaved=   6.
 NSaved= 6 IEnMin= 6 EnMin= -193.155692884032     IErMin= 6 ErrMin= 5.37D-08
 ErrMax= 5.37D-08  0.00D+00 EMaxC= 1.00D-01 BMatC= 6.61D-13 BMatP= 2.20D-11
 IDIUse=1 WtCom= 1.00D+00 WtEn= 0.00D+00
 Coeff-Com:  0.774D-03-0.102D-01 0.402D-01 0.787D-01 0.225D+00 0.665D+00
 Coeff:      0.774D-03-0.102D-01 0.402D-01 0.787D-01 0.225D+00 0.665D+00
 Gap=     0.233 Goal=   None    Shift=    0.000
 RMSDP=1.29D-08 MaxDP=1.77D-07 DE=-2.03D-11 OVMax= 2.79D-07

 Cycle   7  Pass 1  IDiag  1:
 E= -193.155692884033     Delta-E=       -0.000000000001 Rises=F Damp=F
 DIIS: error= 9.58D-09 at cycle   7 NSaved=   7.
 NSaved= 7 IEnMin= 7 EnMin= -193.155692884033     IErMin= 7 ErrMin= 9.58D-09
 ErrMax= 9.58D-09  0.00D+00 EMaxC= 1.00D-01 BMatC= 9.76D-15 BMatP= 6.61D-13
 IDIUse=1 WtCom= 1.00D+00 WtEn= 0.00D+00
 Coeff-Com:  0.121D-03-0.141D-02 0.103D-02 0.380D-02 0.132D-01 0.814D-01
 Coeff-Com:  0.902D+00
 Coeff:      0.121D-03-0.141D-02 0.103D-02 0.380D-02 0.132D-01 0.814D-01
 Coeff:      0.902D+00
 Gap=     0.233 Goal=   None    Shift=    0.000
 RMSDP=3.49D-09 MaxDP=3.62D-08 DE=-1.31D-12 OVMax= 1.44D-07

 SCF Done:  E(RB3LYP) =  -193.155692884     A.U. after    7 cycles
            NFock=  7  Conv=0.35D-08     -V/T= 2.0095
 KE= 1.913453417875D+02 PE=-6.879079947679D+02 EE= 1.844414612648D+02
 Leave Link  502 at Tue Feb  7 16:28:54 2017, MaxMem=  1048576000 cpu:         9.1
 (Enter /mnt/data/applications/G09/g09/l701.exe)
 Compute integral first derivatives.
 ... and contract with generalized density number  0.
 Leave Link  701 at Tue Feb  7 16:28:54 2017, MaxMem=  1048576000 cpu:         1.2
 (Enter /mnt/data/applications/G09/g09/l702.exe)
 L702 exits ... SP integral derivatives will be done elsewhere.
 Leave Link  702 at Tue Feb  7 16:28:54 2017, MaxMem=  1048576000 cpu:         0.2
 (Enter /mnt/data/applications/G09/g09/l703.exe)
 Compute integral first derivatives, UseDBF=F ICtDFT=           0.
 Integral derivatives from FoFJK, PRISM(SPDF).
 Calling FoFJK, ICntrl=      2127 FMM=F ISym2X=0 I1Cent= 0 IOpClX= 0 NMat=1 NMatS=1 NMatT=0.
 FoFJK:  IHMeth= 1 ICntrl=    2127 DoSepK=F KAlg= 0 I1Cent=   0 FoldK=F
 IRaf=         0 NMat=   1 IRICut=       1 DoRegI=T DoRafI=F ISym2E= 0.
 FoFCou: FMM=F IPFlag=           0 FMFlag=      100000 FMFlg1=         800
         NFxFlg=           0 DoJE=F BraDBF=F KetDBF=F FulRan=T
         wScrn=  0.000000 ICntrl=    2127 IOpCl=  0 I1Cent=           0 NGrid=           0
         NMat0=    1 NMatS0=      1 NMatT0=    0 NMatD0=    1 NMtDS0=    0 NMtDT0=    0
 Symmetry not used in FoFCou.
 Leave Link  703 at Tue Feb  7 16:28:55 2017, MaxMem=  1048576000 cpu:         5.2
 (Enter /mnt/data/applications/G09/g09/l716.exe)
 Dipole        =-5.38171591D-01-9.01085511D-01-3.54137220D-01
 Cartesian Forces:  Max     0.000006048 RMS     0.000002281
 Leave Link  716 at Tue Feb  7 16:28:55 2017, MaxMem=  1048576000 cpu:         0.3
 (Enter /mnt/data/applications/G09/g09/l120.exe)
 SvSCFP is copying densities from files   528 and   530 to   603.
 ONIOM: saving gridpoint  2
 ONIOM: restoring gridpoint  1
 ONIOM: restoring gridpoint  1 on chk file.
 ONIOM: generating point  1 -- low level on model system.
 Leave Link  120 at Tue Feb  7 16:28:55 2017, MaxMem=  1048576000 cpu:         0.3
 (Enter /mnt/data/applications/G09/g09/l301.exe)
 Standard basis: STO-3G (5D, 7F)
 Ernie: Thresh=  0.10000D-02 Tol=  0.10000D-05 Strict=F.
    26 basis functions,    78 primitive gaussians,    26 cartesian basis functions
    16 alpha electrons       16 beta electrons
       nuclear repulsion energy       118.9654988315 Hartrees.
 IExCor=    0 DFT=F Ex=HF Corr=None ExCW=0 ScaHFX=  1.000000
 ScaDFX=  1.000000  1.000000  1.000000  1.000000 ScalE2=  1.000000  1.000000
 IRadAn=      0 IRanWt=     -1 IRanGd=            0 ICorTp=0 IEmpDi=  4
 NAtoms=   10 NActive=   10 NUniq=   10 SFac= 1.00D+00 NAtFMM=   60 NAOKFM=F Big=F
 Integral buffers will be    131072 words long.
 Raffenetti 1 integral format.
 Two-electron integral symmetry is turned off.
 Leave Link  301 at Tue Feb  7 16:28:55 2017, MaxMem=  1048576000 cpu:         0.6
 (Enter /mnt/data/applications/G09/g09/l402.exe)
 External calculation of energy and first derivatives.
 Running external command "./sictwo_files/sictwo_g09d01 M"
         input file       "/scratch/Gau-11541.EIn"
         output file      "/scratch/Gau-11541.EOu"
         message file     "/scratch/Gau-11541.EMs"
         fchk file        "/scratch/Gau-11541.EFC"
         mat. el file     "/scratch/Gau-11541.EUF"

---------------------------- SICTWO Version 1.0 STARTED -----------------------------

MM calculations started
MM calculations finished ....
Information recovery

---------------------------- SICTWO Version 1.0 FINISHED -----------------------------

 Recovered energy= 0.375802987820E-02 dipole=     -0.725878982835     -1.215699759870     -0.476837575716
 Energy=    3.758029878E-03 NIter=   0.
 Dipole moment=      -0.725879      -1.215700      -0.476838
 Leave Link  402 at Tue Feb  7 16:28:58 2017, MaxMem=  1048576000 cpu:        17.1
 (Enter /mnt/data/applications/G09/g09/l716.exe)
 Dipole        =-7.25878983D-01-1.21569976D+00-4.76837576D-01
 Cartesian Forces:  Max     0.024081526 RMS     0.007297113
 Leave Link  716 at Tue Feb  7 16:28:58 2017, MaxMem=  1048576000 cpu:         0.2
 (Enter /mnt/data/applications/G09/g09/l120.exe)
 SvSCFP did not find density file   528.
 ONIOM: saving gridpoint  1
 ONIOM: restoring gridpoint  3
 ONIOM: calculating energy.
 ONIOM: gridpoint  1 method:  low   system:  model energy:     0.003758029878
 ONIOM: gridpoint  2 method:  high  system:  model energy:  -193.155692884033
 ONIOM: gridpoint  3 method:  low   system:  real  energy:     0.003758029878
 ONIOM: extrapolated energy =    -193.155692884033
 ONIOM: calculating first derivatives.
 ONIOM: calculating electric field derivatives.
 ONIOM: Integrating ONIOM file  4 number   619
 ONIOM: Dipole        =-5.38171591D-01-9.01085511D-01-3.54137220D-01
 ONIOM: Dipole moment (Debye):
    X=    -1.3679    Y=    -2.2903    Z=    -0.9001  Tot=     2.8155
 ONIOM: Integrating ONIOM file  5 number   695
 Leave Link  120 at Tue Feb  7 16:28:58 2017, MaxMem=  1048576000 cpu:         0.0
 (Enter /mnt/data/applications/G09/g09/l716.exe)
 Dipole        =-5.38171591D-01-9.01085511D-01-3.54137220D-01
 -------------------------------------------------------------------
 Center     Atomic                   Forces (Hartrees/Bohr)
 Number     Number              X              Y              Z
 -------------------------------------------------------------------
      1        6           0.000006048   -0.000003582    0.000002188
      2        8           0.000000001   -0.000000308    0.000000710
      3        6          -0.000000948   -0.000000267   -0.000000140
      4        1          -0.000001546    0.000003144    0.000002776
      5        1          -0.000000221    0.000000180    0.000002034
      6        1           0.000001877    0.000000742    0.000003515
      7        6          -0.000000071    0.000003358   -0.000003603
      8        1          -0.000001608   -0.000001992   -0.000002568
      9        1          -0.000002636    0.000000181   -0.000002070
     10        1          -0.000000896   -0.000001457   -0.000002843
 -------------------------------------------------------------------
 Cartesian Forces:  Max     0.000006048 RMS     0.000002281
 Leave Link  716 at Tue Feb  7 16:28:58 2017, MaxMem=  1048576000 cpu:         0.2
 (Enter /mnt/data/applications/G09/g09/l103.exe)

 GradGradGradGradGradGradGradGradGradGradGradGradGradGradGradGradGradGrad
 Berny optimization.
 Using GEDIIS/GDIIS optimizer.
 FormGI is forming the generalized inverse of G from B-inverse, IUseBI=4.
 Internal  Forces:  Max     0.000002731 RMS     0.000000973
 Search for a local minimum.
 Step number  20 out of a maximum of   46
 All quantities printed in internal units (Hartrees-Bohrs-Radians)
 RMS Force = .97260D-06 SwitMx=.10000D-02 MixMth= 2
 Mixed Optimization -- En-DIIS/RFO-DIIS
 Swapping is turned off.
 Update second derivatives using D2CorX and points   11   12   13   14   15
                                                     16   17   18   19   20
 DE= -1.28D-08 DEPred=-6.72D-09 R= 1.90D+00
 Trust test= 1.90D+00 RLast= 6.17D-03 DXMaxT set to 1.01D+00
 ITU=  0  0  0  0  0  1  1  1  1  1  1  1  0 -1  1  0 -1  1  1  0
     Eigenvalues ---    0.00020   0.00121   0.03090   0.05924   0.06011
     Eigenvalues ---    0.06868   0.06952   0.13588   0.14544   0.15432
     Eigenvalues ---    0.16024   0.16784   0.17157   0.23732   0.25372
     Eigenvalues ---    0.28719   0.29468   0.35315   0.36315   0.37193
     Eigenvalues ---    0.37224   0.37264   0.37525   0.91808
 En-DIIS/RFO-DIIS IScMMF=        0 using points:    20   19   18   17   16
 RFO step:  Lambda=-7.24919537D-11.
 NNeg= 0 NP= 5 Switch=  2.50D-03 Rises=F DC=  4.80D-08 SmlDif=  1.00D-05
 RMS Error=  0.2508517116D-05 NUsed= 5 EDIIS=F
 DidBck=F Rises=F RFO-DIIS coefs:    1.15503   -0.21151    0.02784    0.05706   -0.02843
 Iteration  1 RMS(Cart)=  0.00002731 RMS(Int)=  0.00000001
 Iteration  2 RMS(Cart)=  0.00000000 RMS(Int)=  0.00000001
 ITry= 1 IFail=0 DXMaxC= 7.08D-05 DCOld= 1.00D+10 DXMaxT= 1.01D+00 DXLimC= 3.00D+00 Rises=F
 Variable       Old X    -DE/DX   Delta X   Delta X   Delta X     New X
                                 (Linear)    (Quad)   (Total)
    R1        2.29729   0.00000   0.00000   0.00000   0.00000   2.29729
    R2        2.87344   0.00000   0.00001   0.00000   0.00001   2.87346
    R3        2.87350   0.00000  -0.00001   0.00000  -0.00001   2.87350
    R4        2.07381   0.00000   0.00000   0.00000   0.00000   2.07381
    R5        2.07373   0.00000   0.00000   0.00000   0.00000   2.07373
    R6        2.06310   0.00000   0.00000   0.00000   0.00000   2.06310
    R7        2.07373   0.00000   0.00000   0.00000   0.00000   2.07374
    R8        2.07383   0.00000   0.00000   0.00000   0.00000   2.07383
    R9        2.06308   0.00000   0.00000   0.00000   0.00000   2.06308
    A1        2.12494   0.00000  -0.00001   0.00000  -0.00001   2.12493
    A2        2.12486   0.00000   0.00001   0.00000   0.00001   2.12487
    A3        2.03338   0.00000   0.00000   0.00000   0.00000   2.03338
    A4        1.92870   0.00000   0.00001   0.00000   0.00002   1.92871
    A5        1.92876   0.00000   0.00000   0.00001   0.00001   1.92877
    A6        1.91718   0.00000  -0.00001  -0.00001  -0.00001   1.91716
    A7        1.86386   0.00000   0.00001   0.00000   0.00001   1.86387
    A8        1.91217   0.00000  -0.00001   0.00000  -0.00001   1.91216
    A9        1.91246   0.00000  -0.00001   0.00000  -0.00001   1.91245
   A10        1.92905   0.00000  -0.00001   0.00000  -0.00001   1.92904
   A11        1.92851   0.00000   0.00000   0.00000   0.00001   1.92852
   A12        1.91707   0.00000   0.00000   0.00000   0.00001   1.91707
   A13        1.86388   0.00000  -0.00001   0.00000  -0.00001   1.86387
   A14        1.91247   0.00000   0.00000   0.00000   0.00000   1.91247
   A15        1.91215   0.00000   0.00001   0.00000   0.00001   1.91216
    D1        2.11040   0.00000   0.00004   0.00000   0.00004   2.11044
    D2       -2.11358   0.00000   0.00006   0.00001   0.00007  -2.11352
    D3       -0.00139   0.00000   0.00004   0.00001   0.00005  -0.00134
    D4       -1.03098   0.00000   0.00005   0.00000   0.00005  -1.03093
    D5        1.02822   0.00000   0.00007   0.00000   0.00007   1.02829
    D6        3.14041   0.00000   0.00006   0.00000   0.00006   3.14047
    D7        2.11543   0.00000  -0.00001  -0.00001  -0.00001   2.11542
    D8       -2.10847   0.00000  -0.00002  -0.00001  -0.00003  -2.10850
    D9        0.00310   0.00000   0.00000  -0.00001  -0.00001   0.00309
   D10       -1.02637   0.00000  -0.00002   0.00000  -0.00002  -1.02639
   D11        1.03291   0.00000  -0.00003   0.00000  -0.00004   1.03288
   D12       -3.13870   0.00000  -0.00002   0.00000  -0.00002  -3.13872
         Item               Value     Threshold  Converged?
 Maximum Force            0.000003     0.000450     YES
 RMS     Force            0.000001     0.000300     YES
 Maximum Displacement     0.000071     0.001800     YES
 RMS     Displacement     0.000027     0.001200     YES
 Predicted change in Energy=-9.956177D-11
 Optimization completed.
    -- Stationary point found.
                           ----------------------------
                           !   Optimized Parameters   !
                           ! (Angstroms and Degrees)  !
 --------------------------                            --------------------------
 ! Name  Definition              Value          Derivative Info.                !
 --------------------------------------------------------------------------------
 ! R1    R(1,2)                  1.2157         -DE/DX =    0.0                 !
 ! R2    R(1,3)                  1.5206         -DE/DX =    0.0                 !
 ! R3    R(1,7)                  1.5206         -DE/DX =    0.0                 !
 ! R4    R(3,4)                  1.0974         -DE/DX =    0.0                 !
 ! R5    R(3,5)                  1.0974         -DE/DX =    0.0                 !
 ! R6    R(3,6)                  1.0917         -DE/DX =    0.0                 !
 ! R7    R(7,8)                  1.0974         -DE/DX =    0.0                 !
 ! R8    R(7,9)                  1.0974         -DE/DX =    0.0                 !
 ! R9    R(7,10)                 1.0917         -DE/DX =    0.0                 !
 ! A1    A(2,1,3)              121.7503         -DE/DX =    0.0                 !
 ! A2    A(2,1,7)              121.7457         -DE/DX =    0.0                 !
 ! A3    A(3,1,7)              116.504          -DE/DX =    0.0                 !
 ! A4    A(1,3,4)              110.5062         -DE/DX =    0.0                 !
 ! A5    A(1,3,5)              110.5099         -DE/DX =    0.0                 !
 ! A6    A(1,3,6)              109.8461         -DE/DX =    0.0                 !
 ! A7    A(4,3,5)              106.7914         -DE/DX =    0.0                 !
 ! A8    A(4,3,6)              109.5591         -DE/DX =    0.0                 !
 ! A9    A(5,3,6)              109.5759         -DE/DX =    0.0                 !
 ! A10   A(1,7,8)              110.5265         -DE/DX =    0.0                 !
 ! A11   A(1,7,9)              110.4957         -DE/DX =    0.0                 !
 ! A12   A(1,7,10)             109.8398         -DE/DX =    0.0                 !
 ! A13   A(8,7,9)              106.7922         -DE/DX =    0.0                 !
 ! A14   A(8,7,10)             109.5766         -DE/DX =    0.0                 !
 ! A15   A(9,7,10)             109.558          -DE/DX =    0.0                 !
 ! D1    D(2,1,3,4)            120.9171         -DE/DX =    0.0                 !
 ! D2    D(2,1,3,5)           -121.0995         -DE/DX =    0.0                 !
 ! D3    D(2,1,3,6)             -0.0795         -DE/DX =    0.0                 !
 ! D4    D(7,1,3,4)            -59.0709         -DE/DX =    0.0                 !
 ! D5    D(7,1,3,5)             58.9126         -DE/DX =    0.0                 !
 ! D6    D(7,1,3,6)            179.9325         -DE/DX =    0.0                 !
 ! D7    D(2,1,7,8)            121.2053         -DE/DX =    0.0                 !
 ! D8    D(2,1,7,9)           -120.8065         -DE/DX =    0.0                 !
 ! D9    D(2,1,7,10)             0.1779         -DE/DX =    0.0                 !
 ! D10   D(3,1,7,8)            -58.8067         -DE/DX =    0.0                 !
 ! D11   D(3,1,7,9)             59.1815         -DE/DX =    0.0                 !
 ! D12   D(3,1,7,10)          -179.8341         -DE/DX =    0.0                 !
 --------------------------------------------------------------------------------
 Lowest energy point so far.  Saving SCF results.
 GradGradGradGradGradGradGradGradGradGradGradGradGradGradGradGradGradGrad

 Largest change from initial coordinates is atom    4       0.040 Angstoms.
 Leave Link  103 at Tue Feb  7 16:28:58 2017, MaxMem=  1048576000 cpu:         0.0
 (Enter /mnt/data/applications/G09/g09/l202.exe)
                          Input orientation:                          
 ---------------------------------------------------------------------
 Center     Atomic      Atomic             Coordinates (Angstroms)
 Number     Number       Type             X           Y           Z
 ---------------------------------------------------------------------
      1          6    10061002       -2.355677    0.396467    0.128785
      2          8    10081002       -1.765049    1.385598    0.516914
      3          6    10061003       -3.874023    0.344660    0.065152
      4          1    10011000       -4.209268    0.146893   -0.960915
      5          1    10011000       -4.257200   -0.474134    0.687224
      6          1    10011000       -4.291995    1.292460    0.409941
      7          6    10061003       -1.614693   -0.853672   -0.318762
      8          1    10011000       -1.915710   -1.717246    0.287747
      9          1    10011000       -1.863060   -1.095501   -1.359997
     10          1    10011000       -0.537902   -0.699224   -0.226289
 ---------------------------------------------------------------------
                    Distance matrix (angstroms):
                    1          2          3          4          5
     1  C    0.000000
     2  O    1.215675   0.000000
     3  C    1.520561   2.394872   0.000000
     4  H    2.164609   3.113290   1.097413   0.000000
     5  H    2.164623   3.114229   1.097370   1.761912   0.000000
     6  H    2.152018   2.530924   1.091744   1.788410   1.788560
     7  C    1.520593   2.394847   2.586109   2.853998   2.852876
     8  H    2.164861   3.114941   2.852366   3.208517   2.680949
     9  H    2.164512   3.112596   2.854660   2.684679   3.210782
    10  H    2.151957   2.530755   3.507753   3.838556   3.836450
                    6          7          8          9         10
     6  H    0.000000
     7  C    3.507825   0.000000
     8  H    3.836664   1.097372   0.000000
     9  H    3.838588   1.097423   1.761931   0.000000
    10  H    4.297069   1.091735   1.788563   1.788399   0.000000
 Symmetry turned off by external request.
 Stoichiometry    C3H6O
 Framework group  C1[X(C3H6O)]
 Deg. of freedom    24
 Full point group                 C1      NOp   1
 Rotational constants (GHZ):     10.0921631      8.4490545      4.8765789
 Leave Link  202 at Tue Feb  7 16:28:58 2017, MaxMem=  1048576000 cpu:         0.0
 (Enter /mnt/data/applications/G09/g09/l9999.exe)
 1\1\GINC-KIMIK2082\FOpt\ONIOM(B3LYP/6-31G(d):External='./sictwo_files/
 sictwo_g09d01')\Mixed\C3H6O1\IFUNES\07-Feb-2017\0\\#p opt=nomicro onio
 m(B3LYP/6-31G*:external="./sictwo_files/sictwo_g09d01") geom=connectiv
 ity nosymm scf(maxcyc=100)\\ONIOM(QM:MM) OPT FREQ with SICTWO V1.0\\0,
 1\C,-2.3556769741,0.396467303,0.1287846204\O,-1.7650492796,1.385598093
 ,0.516913834\C,-3.8740227409,0.3446597232,0.0651520343\H,-4.2092677377
 ,0.1468930581,-0.9609150041\H,-4.2572003589,-0.4741337696,0.6872237796
 \H,-4.2919954723,1.2924595041,0.4099407056\C,-1.614693372,-0.853671618
 7,-0.3187623571\H,-1.9157096249,-1.7172461264,0.2877472426\H,-1.863059
 9749,-1.0955005249,-1.35999705\H,-0.5379023847,-0.6992236419,-0.226289
 0754\\Version=EM64L-G09RevD.01\HF=0.003758\RMSD=3.492e-09\RMSF=2.281e-
 06\Dipole=-0.5381716,-0.9010855,-0.3541372\PG=C01 [X(C3H6O1)]\\@


 THAT'S WHAT MAKES US A GREAT COUNTRY.
 THE LITTLE THINGS ARE SERIOUS AND THE BIG ONES ARE NOT.
           WILL ROGERS
 Job cpu time:       0 days  0 hours 20 minutes 10.6 seconds.
 File lengths (MBytes):  RWF=      5 Int=      0 D2E=      0 Chk=      3 Scr=      1
 Normal termination of Gaussian 09 at Tue Feb  7 16:28:59 2017.
