 Entering Gaussian System, Link 0=g09
 Initial command:
 /mnt/data/applications/G09/g09/l1.exe "/scratch/Gau-11638.inp" -scrdir="/scratch/"
 Entering Link 1 = /mnt/data/applications/G09/g09/l1.exe PID=     11639.
  
 Copyright (c) 1988,1990,1992,1993,1995,1998,2003,2009,2013,
            Gaussian, Inc.  All Rights Reserved.
  
 This is part of the Gaussian(R) 09 program.  It is based on
 the Gaussian(R) 03 system (copyright 2003, Gaussian, Inc.),
 the Gaussian(R) 98 system (copyright 1998, Gaussian, Inc.),
 the Gaussian(R) 94 system (copyright 1995, Gaussian, Inc.),
 the Gaussian 92(TM) system (copyright 1992, Gaussian, Inc.),
 the Gaussian 90(TM) system (copyright 1990, Gaussian, Inc.),
 the Gaussian 88(TM) system (copyright 1988, Gaussian, Inc.),
 the Gaussian 86(TM) system (copyright 1986, Carnegie Mellon
 University), and the Gaussian 82(TM) system (copyright 1983,
 Carnegie Mellon University). Gaussian is a federally registered
 trademark of Gaussian, Inc.
  
 This software contains proprietary and confidential information,
 including trade secrets, belonging to Gaussian, Inc.
  
 This software is provided under written license and may be
 used, copied, transmitted, or stored only in accord with that
 written license.
  
 The following legend is applicable only to US Government
 contracts under FAR:
  
                    RESTRICTED RIGHTS LEGEND
  
 Use, reproduction and disclosure by the US Government is
 subject to restrictions as set forth in subparagraphs (a)
 and (c) of the Commercial Computer Software - Restricted
 Rights clause in FAR 52.227-19.
  
 Gaussian, Inc.
 340 Quinnipiac St., Bldg. 40, Wallingford CT 06492
  
  
 ---------------------------------------------------------------
 Warning -- This program may not be used in any manner that
 competes with the business of Gaussian, Inc. or will provide
 assistance to any competitor of Gaussian, Inc.  The licensee
 of this program is prohibited from giving any competitor of
 Gaussian, Inc. access to this program.  By using this program,
 the user acknowledges that Gaussian, Inc. is engaged in the
 business of creating and licensing software in the field of
 computational chemistry and represents and warrants to the
 licensee that it is not a competitor of Gaussian, Inc. and that
 it will not use this program in any manner prohibited above.
 ---------------------------------------------------------------
  

 Cite this work as:
 Gaussian 09, Revision D.01,
 M. J. Frisch, G. W. Trucks, H. B. Schlegel, G. E. Scuseria, 
 M. A. Robb, J. R. Cheeseman, G. Scalmani, V. Barone, B. Mennucci, 
 G. A. Petersson, H. Nakatsuji, M. Caricato, X. Li, H. P. Hratchian, 
 A. F. Izmaylov, J. Bloino, G. Zheng, J. L. Sonnenberg, M. Hada, 
 M. Ehara, K. Toyota, R. Fukuda, J. Hasegawa, M. Ishida, T. Nakajima, 
 Y. Honda, O. Kitao, H. Nakai, T. Vreven, J. A. Montgomery, Jr., 
 J. E. Peralta, F. Ogliaro, M. Bearpark, J. J. Heyd, E. Brothers, 
 K. N. Kudin, V. N. Staroverov, T. Keith, R. Kobayashi, J. Normand, 
 K. Raghavachari, A. Rendell, J. C. Burant, S. S. Iyengar, J. Tomasi, 
 M. Cossi, N. Rega, J. M. Millam, M. Klene, J. E. Knox, J. B. Cross, 
 V. Bakken, C. Adamo, J. Jaramillo, R. Gomperts, R. E. Stratmann, 
 O. Yazyev, A. J. Austin, R. Cammi, C. Pomelli, J. W. Ochterski, 
 R. L. Martin, K. Morokuma, V. G. Zakrzewski, G. A. Voth, 
 P. Salvador, J. J. Dannenberg, S. Dapprich, A. D. Daniels, 
 O. Farkas, J. B. Foresman, J. V. Ortiz, J. Cioslowski, 
 and D. J. Fox, Gaussian, Inc., Wallingford CT, 2013.
 
 ******************************************
 Gaussian 09:  EM64L-G09RevD.01 24-Apr-2013
                 7-Feb-2017 
 ******************************************
 %nprocshared=8
 Will use up to    8 processors via shared memory.
 %mem=8000MB
 %chk=I_1
 ----------------------------------------------------------------------
 #p opt=nomicro oniom(B3LYP/6-31G*:external="./sictwo_files/sictwo_g09d
 01") geom=connectivity nosymm scf(maxcyc=100)
 ----------------------------------------------------------------------
 1/14=-1,18=20,19=15,26=1,38=1,52=2,57=2/1,3;
 2/9=110,12=2,15=1,17=6,18=5,40=1/2;
 1/14=-1,18=20,19=15,26=1,38=1,52=2,53=3172/20;
 3/11=9,16=1,25=1,30=1,41=9900000,43=2,71=1/1;
 4/20=17,22=1,23=100,24=3,113=1,114=1/2;
 6/7=2,8=2,9=2,10=2/1;
 7/7=1,30=1,33=-1,44=-1/16;
 1/14=-1,18=20,19=15,26=1,52=2,53=2032/20;
 3/5=1,6=6,7=1,11=2,16=1,25=1,30=1,71=1,74=-5/1,2,3;
 4//1;
 5/5=2,7=100,38=5/2;
 6/7=2,8=2,9=2,10=2,28=1/1;
 7/7=1,30=1,33=-1/1,2,3,16;
 1/14=-1,18=20,19=15,26=1,52=2,53=1022/20;
 3/11=9,16=1,25=1,30=1,41=9900000,43=2,71=1/1;
 4/20=17,22=1,23=100,24=3,113=1,114=2/2;
 6/7=2,8=2,9=2,10=2/1;
 7/7=1,30=1,33=-1,44=-1/16;
 1/14=-1,18=20,19=15,26=1,52=2,53=3015/20;
 7/9=1,44=-1/16;
 1/14=-1,18=20,19=15,26=1,52=2/3(2);
 2/9=110,15=1/2;
 99//99;
 2/9=110,15=1/2;
 1/14=-1,18=20,19=15,26=1,52=2,53=3173/20;
 3/11=9,16=1,25=1,30=1,41=9900000,43=2,71=1/1;
 4/16=2,20=17,22=1,23=100,24=3,113=1,114=1/2;
 7/7=1,30=1,33=-1,44=-1/16;
 1/14=-1,18=20,19=15,26=1,52=2,53=2033/20;
 3/5=1,6=6,7=1,11=2,16=1,25=1,30=1,71=1,74=-5/1,2,3;
 4/5=5,16=3,69=1/1;
 5/5=2,7=100,38=5/2;
 7/7=1,30=1,33=-1/1,2,3,16;
 1/14=-1,18=20,19=15,26=1,52=2,53=1023/20;
 3/11=9,16=1,25=1,30=1,41=9900000,43=2,71=1/1;
 4/16=2,20=17,22=1,23=100,24=3,113=1,114=2/2;
 7/7=1,30=1,33=-1,44=-1/16;
 1/14=-1,18=20,19=15,26=1,52=2,53=3015/20;
 7/9=1,44=-1/16;
 1/14=-1,18=20,19=15,26=1,52=2/3(-16);
 2/9=110,15=1/2;
 99//99;
 Leave Link    1 at Tue Feb  7 16:45:57 2017, MaxMem=  1048576000 cpu:         0.7
 (Enter /mnt/data/applications/G09/g09/l101.exe)
 --------------------------------------
 ONIOM(QM:MM) OPT FREQ with SICTWO V1.0
 --------------------------------------
 Symbolic Z-matrix:
 Charge =  0 Multiplicity = 1 for low   level calculation on real  system.
 Charge =  0 Multiplicity = 1 for high  level calculation on model system.
 Charge =  0 Multiplicity = 1 for low   level calculation on model system.
 C-C_2                0    -2.36842   0.38462   0.       H 
 C-C_3                0    -3.90842   0.38462   0.       H 
 H-H_                 0    -4.26509   0.88902  -0.87365  H 
 H-H_                 0    -4.26509  -0.62419   0.       H 
 H-H_                 0    -4.26509   0.88902   0.87365  H 
 C-C_3                0    -1.60106  -0.93573  -0.19863  H 
 H-H_                 0    -1.80801  -1.59492   0.61841  H 
 H-H_                 0    -1.91129  -1.39428  -1.11426  H 
 N-N_2                0    -1.72384   1.49371   0.16685  H 
 C-C_3                0    -1.98204   2.92475   0.38212  H 
 H-H_                 0    -2.55823   3.30981  -0.43313  H 
 H-H_                 0    -2.52407   3.05596   1.2953   H 
 H-H_                 0    -1.05176   3.45013   0.4409   H 
 H-H_                 0    -0.55073  -0.73537  -0.23803  L    H-H_     6     0.        0. 
 
 Warning:  atom H14 in layer R is uses the same element as its link atom.
 NAtoms=     14 NQM=       14 NQMF=       0 NMMI=      0 NMMIF=      0
                NMic=       0 NMicF=      0.
                    Isotopes and Nuclear Properties:
 (Nuclear quadrupole moments (NQMom) in fm**2, nuclear magnetic moments (NMagM)
  in nuclear magnetons)

  Atom         1           2           3           4           5           6           7           8           9          10
 IAtWgt=          12          12           1           1           1          12           1           1          14          12
 AtmWgt=  12.0000000  12.0000000   1.0078250   1.0078250   1.0078250  12.0000000   1.0078250   1.0078250  14.0030740  12.0000000
 NucSpn=           0           0           1           1           1           0           1           1           2           0
 AtZEff=   0.0000000   0.0000000   0.0000000   0.0000000   0.0000000   0.0000000   0.0000000   0.0000000   0.0000000   0.0000000
 NQMom=    0.0000000   0.0000000   0.0000000   0.0000000   0.0000000   0.0000000   0.0000000   0.0000000   2.0440000   0.0000000
 NMagM=    0.0000000   0.0000000   2.7928460   2.7928460   2.7928460   0.0000000   2.7928460   2.7928460   0.4037610   0.0000000
 AtZNuc=   6.0000000   6.0000000   1.0000000   1.0000000   1.0000000   6.0000000   1.0000000   1.0000000   7.0000000   6.0000000

  Atom        11          12          13          14
 IAtWgt=           1           1           1           1
 AtmWgt=   1.0078250   1.0078250   1.0078250   1.0078250
 NucSpn=           1           1           1           1
 AtZEff=   0.0000000   0.0000000   0.0000000   0.0000000
 NQMom=    0.0000000   0.0000000   0.0000000   0.0000000
 NMagM=    2.7928460   2.7928460   2.7928460   2.7928460
 AtZNuc=   1.0000000   1.0000000   1.0000000   1.0000000
 Leave Link  101 at Tue Feb  7 16:45:57 2017, MaxMem=  1048576000 cpu:         2.9
 (Enter /mnt/data/applications/G09/g09/l103.exe)

 GradGradGradGradGradGradGradGradGradGradGradGradGradGradGradGradGradGrad
 Berny optimization.
 Initialization pass.
                           ----------------------------
                           !    Initial Parameters    !
                           ! (Angstroms and Degrees)  !
 --------------------------                            --------------------------
 ! Name  Definition              Value          Derivative Info.                !
 --------------------------------------------------------------------------------
 ! R1    R(1,2)                  1.54           estimate D2E/DX2                !
 ! R2    R(1,6)                  1.54           estimate D2E/DX2                !
 ! R3    R(1,9)                  1.2936         estimate D2E/DX2                !
 ! R4    R(2,3)                  1.07           estimate D2E/DX2                !
 ! R5    R(2,4)                  1.07           estimate D2E/DX2                !
 ! R6    R(2,5)                  1.07           estimate D2E/DX2                !
 ! R7    R(6,7)                  1.07           estimate D2E/DX2                !
 ! R8    R(6,8)                  1.07           estimate D2E/DX2                !
 ! R9    R(6,14)                 1.07           estimate D2E/DX2                !
 ! R10   R(9,10)                 1.47           estimate D2E/DX2                !
 ! R11   R(10,11)                1.07           estimate D2E/DX2                !
 ! R12   R(10,12)                1.07           estimate D2E/DX2                !
 ! R13   R(10,13)                1.07           estimate D2E/DX2                !
 ! A1    A(2,1,6)              119.8865         estimate D2E/DX2                !
 ! A2    A(2,1,9)              119.8865         estimate D2E/DX2                !
 ! A3    A(6,1,9)              120.2269         estimate D2E/DX2                !
 ! A4    A(1,2,3)              109.4712         estimate D2E/DX2                !
 ! A5    A(1,2,4)              109.4712         estimate D2E/DX2                !
 ! A6    A(1,2,5)              109.4712         estimate D2E/DX2                !
 ! A7    A(3,2,4)              109.4713         estimate D2E/DX2                !
 ! A8    A(3,2,5)              109.4712         estimate D2E/DX2                !
 ! A9    A(4,2,5)              109.4712         estimate D2E/DX2                !
 ! A10   A(1,6,7)              109.4712         estimate D2E/DX2                !
 ! A11   A(1,6,8)              109.4712         estimate D2E/DX2                !
 ! A12   A(1,6,14)             109.4712         estimate D2E/DX2                !
 ! A13   A(7,6,8)              109.4713         estimate D2E/DX2                !
 ! A14   A(7,6,14)             109.4712         estimate D2E/DX2                !
 ! A15   A(8,6,14)             109.4712         estimate D2E/DX2                !
 ! A16   A(1,9,10)             139.9974         estimate D2E/DX2                !
 ! A17   A(9,10,11)            109.4712         estimate D2E/DX2                !
 ! A18   A(9,10,12)            109.4712         estimate D2E/DX2                !
 ! A19   A(9,10,13)            109.4712         estimate D2E/DX2                !
 ! A20   A(11,10,12)           109.4713         estimate D2E/DX2                !
 ! A21   A(11,10,13)           109.4712         estimate D2E/DX2                !
 ! A22   A(12,10,13)           109.4712         estimate D2E/DX2                !
 ! D1    D(6,1,2,3)           -111.4449         estimate D2E/DX2                !
 ! D2    D(6,1,2,4)              8.5551         estimate D2E/DX2                !
 ! D3    D(6,1,2,5)            128.5551         estimate D2E/DX2                !
 ! D4    D(9,1,2,3)             68.5551         estimate D2E/DX2                !
 ! D5    D(9,1,2,4)           -171.4449         estimate D2E/DX2                !
 ! D6    D(9,1,2,5)            -51.4449         estimate D2E/DX2                !
 ! D7    D(2,1,6,7)            -63.9088         estimate D2E/DX2                !
 ! D8    D(2,1,6,8)             56.0912         estimate D2E/DX2                !
 ! D9    D(2,1,6,14)           176.0912         estimate D2E/DX2                !
 ! D10   D(9,1,6,7)            116.0912         estimate D2E/DX2                !
 ! D11   D(9,1,6,8)           -123.9088         estimate D2E/DX2                !
 ! D12   D(9,1,6,14)            -3.9088         estimate D2E/DX2                !
 ! D13   D(2,1,9,10)             0.0            estimate D2E/DX2                !
 ! D14   D(6,1,9,10)           180.0            estimate D2E/DX2                !
 ! D15   D(1,9,10,11)          -58.8621         estimate D2E/DX2                !
 ! D16   D(1,9,10,12)           61.1379         estimate D2E/DX2                !
 ! D17   D(1,9,10,13)         -178.8621         estimate D2E/DX2                !
 --------------------------------------------------------------------------------
 Trust Radius=3.00D-01 FncErr=1.00D-07 GrdErr=1.00D-07
 Number of steps in this run=     62 maximum allowed number of steps=    100.
 GradGradGradGradGradGradGradGradGradGradGradGradGradGradGradGradGradGrad

 Leave Link  103 at Tue Feb  7 16:45:58 2017, MaxMem=  1048576000 cpu:         0.1
 (Enter /mnt/data/applications/G09/g09/l202.exe)
                          Input orientation:                          
 ---------------------------------------------------------------------
 Center     Atomic      Atomic             Coordinates (Angstroms)
 Number     Number       Type             X           Y           Z
 ---------------------------------------------------------------------
      1          6    10061002       -2.368421    0.384615    0.000000
      2          6    10061003       -3.908421    0.384615    0.000000
      3          1    10011000       -4.265087    0.889018   -0.873651
      4          1    10011000       -4.265087   -0.624190    0.000000
      5          1    10011000       -4.265088    0.889018    0.873651
      6          6    10061003       -1.601064   -0.935730   -0.198625
      7          1    10011000       -1.808014   -1.594917    0.618408
      8          1    10011000       -1.911285   -1.394283   -1.114263
      9          7    10071002       -1.723841    1.493705    0.166845
     10          6    10061003       -1.982036    2.924750    0.382123
     11          1    10011000       -2.558226    3.309809   -0.433128
     12          1    10011000       -2.524066    3.055958    1.295299
     13          1    10011000       -1.051756    3.450130    0.440899
     14          1    10011000       -0.550729   -0.735372   -0.238027
 ---------------------------------------------------------------------
                    Distance matrix (angstroms):
                    1          2          3          4          5
     1  C    0.000000
     2  C    1.540000   0.000000
     3  H    2.148263   1.070000   0.000000
     4  H    2.148263   1.070000   1.747303   0.000000
     5  H    2.148263   1.070000   1.747303   1.747303   0.000000
     6  C    1.540000   2.665832   3.298846   2.689522   3.402426
     7  H    2.148263   2.951726   3.799129   2.713291   3.503183
     8  H    2.148263   2.897346   3.288121   2.715697   3.834795
     9  N    1.293600   2.455668   2.811799   3.312288   2.706133
    10  C    2.597614   3.210804   3.306584   4.237136   3.098085
    11  H    2.963171   3.250751   2.994606   4.310142   3.237480
    12  H    2.972893   3.275715   3.525780   4.272288   2.811507
    13  H    3.365320   4.213349   4.314259   5.207684   4.131836
    14  H    2.148263   3.547552   4.103550   3.723638   4.203681
                    6          7          8          9         10
     6  C    0.000000
     7  H    1.070000   0.000000
     8  H    1.070000   1.747303   0.000000
     9  N    2.459837   3.122592   3.164940   0.000000
    10  C    3.922463   4.529184   4.571457   1.470000   0.000000
    11  H    4.358411   5.071970   4.796973   2.086720   1.070000
    12  H    4.360884   4.754108   5.097659   2.086720   1.070000
    13  H    4.466150   5.104501   5.160005   2.086720   1.070000
    14  H    1.070000   1.747303   1.747303   2.551254   3.978658
                   11         12         13         14
    11  H    0.000000
    12  H    1.747303   0.000000
    13  H    1.747303   1.747303   0.000000
    14  H    4.520132   4.540851   4.269706   0.000000
 Symmetry turned off by external request.
 Stoichiometry    C4H9N
 Framework group  C1[X(C4H9N)]
 Deg. of freedom    36
 Full point group                 C1      NOp   1
 Rotational constants (GHZ):      7.9630855      3.5378894      2.5643089
 Leave Link  202 at Tue Feb  7 16:45:58 2017, MaxMem=  1048576000 cpu:         0.0
 (Enter /mnt/data/applications/G09/g09/l120.exe)
 ONIOM: Cut between H /H    14 and C     6 factor= 1.000000 1.000000
 ONIOM: saving gridpoint 17
 ONIOM: generating point  3 -- low level on real system.
 Leave Link  120 at Tue Feb  7 16:45:58 2017, MaxMem=  1048576000 cpu:         0.0
 (Enter /mnt/data/applications/G09/g09/l301.exe)
 Standard basis: STO-3G (5D, 7F)
 Ernie: Thresh=  0.10000D-02 Tol=  0.10000D-05 Strict=F.
    34 basis functions,   102 primitive gaussians,    34 cartesian basis functions
    20 alpha electrons       20 beta electrons
       nuclear repulsion energy       174.3031302994 Hartrees.
 IExCor=    0 DFT=F Ex=HF Corr=None ExCW=0 ScaHFX=  1.000000
 ScaDFX=  1.000000  1.000000  1.000000  1.000000 ScalE2=  1.000000  1.000000
 IRadAn=      0 IRanWt=     -1 IRanGd=            0 ICorTp=0 IEmpDi=  4
 NAtoms=   14 NActive=   14 NUniq=   14 SFac= 1.00D+00 NAtFMM=   60 NAOKFM=F Big=F
 Integral buffers will be    131072 words long.
 Raffenetti 1 integral format.
 Two-electron integral symmetry is turned off.
 Leave Link  301 at Tue Feb  7 16:45:58 2017, MaxMem=  1048576000 cpu:         0.4
 (Enter /mnt/data/applications/G09/g09/l402.exe)
 External calculation of energy and first derivatives.
 Running external command "./sictwo_files/sictwo_g09d01 R"
         input file       "/scratch/Gau-11639.EIn"
         output file      "/scratch/Gau-11639.EOu"
         message file     "/scratch/Gau-11639.EMs"
         fchk file        "/scratch/Gau-11639.EFC"
         mat. el file     "/scratch/Gau-11639.EUF"

---------------------------- SICTWO Version 1.0 STARTED -----------------------------

MM calculations started
MM calculations finished ....
Information recovery

---------------------------- SICTWO Version 1.0 FINISHED -----------------------------

 Recovered energy= 0.446385169711E-01 dipole=     -0.757353410275     -0.430019364899     -0.064522576252
 Energy=    4.463851697E-02 NIter=   0.
 Dipole moment=      -0.757353      -0.430019      -0.064523
 Leave Link  402 at Tue Feb  7 16:46:01 2017, MaxMem=  1048576000 cpu:        21.5
 (Enter /mnt/data/applications/G09/g09/l601.exe)
 Leave Link  601 at Tue Feb  7 16:46:01 2017, MaxMem=  1048576000 cpu:         0.2
 (Enter /mnt/data/applications/G09/g09/l716.exe)
 Dipole        =-7.57353410D-01-4.30019365D-01-6.45225763D-02
 Cartesian Forces:  Max     0.045356813 RMS     0.014802526
 Leave Link  716 at Tue Feb  7 16:46:01 2017, MaxMem=  1048576000 cpu:         0.2
 (Enter /mnt/data/applications/G09/g09/l120.exe)
 SvSCFP did not find density file   528.
 ONIOM: saving gridpoint  3
 ONIOM: restoring gridpoint 17
 ONIOM: generating point  2 -- high level on model system.
 Leave Link  120 at Tue Feb  7 16:46:01 2017, MaxMem=  1048576000 cpu:         0.0
 (Enter /mnt/data/applications/G09/g09/l301.exe)
 Standard basis: 6-31G(d) (6D, 7F)
 Ernie: Thresh=  0.10000D-02 Tol=  0.10000D-05 Strict=F.
    93 basis functions,   176 primitive gaussians,    93 cartesian basis functions
    20 alpha electrons       20 beta electrons
       nuclear repulsion energy       174.3031302994 Hartrees.
 IExCor=  402 DFT=T Ex+Corr=B3LYP ExCW=0 ScaHFX=  0.200000
 ScaDFX=  0.800000  0.720000  1.000000  0.810000 ScalE2=  1.000000  1.000000
 IRadAn=      0 IRanWt=     -1 IRanGd=            0 ICorTp=0 IEmpDi=  4
 NAtoms=   14 NActive=   14 NUniq=   14 SFac= 1.00D+00 NAtFMM=   60 NAOKFM=F Big=F
 Integral buffers will be    131072 words long.
 Raffenetti 2 integral format.
 Two-electron integral symmetry is turned off.
 Leave Link  301 at Tue Feb  7 16:46:01 2017, MaxMem=  1048576000 cpu:         0.4
 (Enter /mnt/data/applications/G09/g09/l302.exe)
 NPDir=0 NMtPBC=     1 NCelOv=     1 NCel=       1 NClECP=     1 NCelD=      1
         NCelK=      1 NCelE2=     1 NClLst=     1 CellRange=     0.0.
 One-electron integrals computed using PRISM.
 NBasis=    93 RedAO= T EigKep=  3.92D-03  NBF=    93
 NBsUse=    93 1.00D-06 EigRej= -1.00D+00 NBFU=    93
 Precomputing XC quadrature grid using
 IXCGrd= 4 IRadAn=           0 IRanWt=          -1 IRanGd=           0 AccXCQ= 0.00D+00.
 Generated NRdTot=       0 NPtTot=           0 NUsed=           0 NTot=          32
 NSgBfM=    93    93    93    93    93 MxSgAt=    14 MxSgA2=    14.
 Leave Link  302 at Tue Feb  7 16:46:02 2017, MaxMem=  1048576000 cpu:         2.1
 (Enter /mnt/data/applications/G09/g09/l303.exe)
 DipDrv:  MaxL=1.
 Leave Link  303 at Tue Feb  7 16:46:02 2017, MaxMem=  1048576000 cpu:         0.3
 (Enter /mnt/data/applications/G09/g09/l401.exe)
 ExpMin= 1.61D-01 ExpMax= 4.17D+03 ExpMxC= 6.27D+02 IAcc=1 IRadAn=         1 AccDes= 0.00D+00
 Harris functional with IExCor=  402 and IRadAn=       1 diagonalized for initial guess.
 HarFok:  IExCor=  402 AccDes= 0.00D+00 IRadAn=         1 IDoV= 1 UseB2=F ITyADJ=14
 ICtDFT=  3500011 ScaDFX=  1.000000  1.000000  1.000000  1.000000
 FoFCou: FMM=F IPFlag=           0 FMFlag=      100000 FMFlg1=           0
         NFxFlg=           0 DoJE=T BraDBF=F KetDBF=T FulRan=T
         wScrn=  0.000000 ICntrl=     500 IOpCl=  0 I1Cent=   200000004 NGrid=           0
         NMat0=    1 NMatS0=      1 NMatT0=    0 NMatD0=    1 NMtDS0=    0 NMtDT0=    0
 Symmetry not used in FoFCou.
 Harris En= -212.619624628039    
 JPrj=0 DoOrth=F DoCkMO=F.
 Leave Link  401 at Tue Feb  7 16:46:02 2017, MaxMem=  1048576000 cpu:         2.3
 (Enter /mnt/data/applications/G09/g09/l502.exe)
 Closed shell SCF:
 Using DIIS extrapolation, IDIIS=  1040.
 Two-electron integral symmetry not used.
 Keep R1 ints in memory in canonical form, NReq=10509401.
 IVT=       39303 IEndB=       39303 NGot=  1048576000 MDV=  1038981692
 LenX=  1038981692 LenY=  1038972602
 Requested convergence on RMS density matrix=1.00D-08 within 100 cycles.
 Requested convergence on MAX density matrix=1.00D-06.
 Requested convergence on             energy=1.00D-06.
 No special actions if energy rises.
 FoFCou: FMM=F IPFlag=           0 FMFlag=           0 FMFlg1=           0
         NFxFlg=           0 DoJE=F BraDBF=F KetDBF=F FulRan=T
         wScrn=  0.000000 ICntrl=     600 IOpCl=  0 I1Cent=           0 NGrid=           0
         NMat0=    1 NMatS0=   4371 NMatT0=    0 NMatD0=    1 NMtDS0=    0 NMtDT0=    0
 Symmetry not used in FoFCou.
 Integral accuracy reduced to 1.0D-05 until final iterations.

 Cycle   1  Pass 0  IDiag  1:
 E= -212.365577079890    
 DIIS: error= 5.77D-02 at cycle   1 NSaved=   1.
 NSaved= 1 IEnMin= 1 EnMin= -212.365577079890     IErMin= 1 ErrMin= 5.77D-02
 ErrMax= 5.77D-02  0.00D+00 EMaxC= 1.00D-01 BMatC= 1.85D-01 BMatP= 1.85D-01
 IDIUse=3 WtCom= 4.23D-01 WtEn= 5.77D-01
 Coeff-Com:  0.100D+01
 Coeff-En:   0.100D+01
 Coeff:      0.100D+01
 Gap=     0.158 Goal=   None    Shift=    0.000
 GapD=    0.158 DampG=1.000 DampE=0.500 DampFc=0.5000 IDamp=-1.
 Damping current iteration by 5.00D-01
 RMSDP=1.05D-02 MaxDP=1.36D-01              OVMax= 1.91D-01

 Cycle   2  Pass 0  IDiag  1:
 E= -212.455201255062     Delta-E=       -0.089624175172 Rises=F Damp=T
 DIIS: error= 8.77D-03 at cycle   2 NSaved=   2.
 NSaved= 2 IEnMin= 2 EnMin= -212.455201255062     IErMin= 2 ErrMin= 8.77D-03
 ErrMax= 8.77D-03  0.00D+00 EMaxC= 1.00D-01 BMatC= 9.26D-03 BMatP= 1.85D-01
 IDIUse=3 WtCom= 9.12D-01 WtEn= 8.77D-02
 Coeff-Com:  0.574D-01 0.943D+00
 Coeff-En:   0.738D-01 0.926D+00
 Coeff:      0.589D-01 0.941D+00
 Gap=     0.216 Goal=   None    Shift=    0.000
 RMSDP=2.29D-03 MaxDP=4.09D-02 DE=-8.96D-02 OVMax= 1.63D-01

 Cycle   3  Pass 0  IDiag  1:
 E= -212.547953523121     Delta-E=       -0.092752268059 Rises=F Damp=F
 DIIS: error= 1.05D-02 at cycle   3 NSaved=   3.
 NSaved= 3 IEnMin= 3 EnMin= -212.547953523121     IErMin= 2 ErrMin= 8.77D-03
 ErrMax= 1.05D-02  0.00D+00 EMaxC= 1.00D-01 BMatC= 1.28D-02 BMatP= 9.26D-03
 IDIUse=2 WtCom= 0.00D+00 WtEn= 1.00D+00
 Coeff-En:   0.000D+00 0.000D+00 0.100D+01
 Coeff:      0.000D+00 0.000D+00 0.100D+01
 Gap=     0.176 Goal=   None    Shift=    0.000
 RMSDP=3.39D-03 MaxDP=8.64D-02 DE=-9.28D-02 OVMax= 1.73D-01

 Cycle   4  Pass 0  IDiag  1:
 E= -212.500231248456     Delta-E=        0.047722274665 Rises=F Damp=F
 DIIS: error= 2.66D-02 at cycle   4 NSaved=   4.
 NSaved= 4 IEnMin= 3 EnMin= -212.547953523121     IErMin= 2 ErrMin= 8.77D-03
 ErrMax= 2.66D-02  0.00D+00 EMaxC= 1.00D-01 BMatC= 6.55D-02 BMatP= 9.26D-03
 IDIUse=2 WtCom= 0.00D+00 WtEn= 1.00D+00
 Coeff-En:   0.000D+00 0.000D+00 0.780D+00 0.220D+00
 Coeff:      0.000D+00 0.000D+00 0.780D+00 0.220D+00
 Gap=     0.199 Goal=   None    Shift=    0.000
 RMSDP=1.81D-03 MaxDP=4.22D-02 DE= 4.77D-02 OVMax= 8.73D-02

 Cycle   5  Pass 0  IDiag  1:
 E= -212.555227160887     Delta-E=       -0.054995912431 Rises=F Damp=F
 DIIS: error= 6.88D-03 at cycle   5 NSaved=   5.
 NSaved= 5 IEnMin= 5 EnMin= -212.555227160887     IErMin= 5 ErrMin= 6.88D-03
 ErrMax= 6.88D-03  0.00D+00 EMaxC= 1.00D-01 BMatC= 4.91D-03 BMatP= 9.26D-03
 IDIUse=3 WtCom= 9.31D-01 WtEn= 6.88D-02
 Coeff-Com: -0.194D-02 0.119D-01 0.253D+00-0.130D+00 0.867D+00
 Coeff-En:   0.000D+00 0.000D+00 0.325D+00 0.000D+00 0.675D+00
 Coeff:     -0.181D-02 0.110D-01 0.258D+00-0.121D+00 0.854D+00
 Gap=     0.209 Goal=   None    Shift=    0.000
 RMSDP=6.33D-04 MaxDP=1.68D-02 DE=-5.50D-02 OVMax= 3.24D-02

 Cycle   6  Pass 0  IDiag  1:
 E= -212.559636957863     Delta-E=       -0.004409796976 Rises=F Damp=F
 DIIS: error= 9.83D-05 at cycle   6 NSaved=   6.
 NSaved= 6 IEnMin= 6 EnMin= -212.559636957863     IErMin= 6 ErrMin= 9.83D-05
 ErrMax= 9.83D-05  0.00D+00 EMaxC= 1.00D-01 BMatC= 1.72D-06 BMatP= 4.91D-03
 IDIUse=1 WtCom= 1.00D+00 WtEn= 0.00D+00
 Coeff-Com: -0.560D-03 0.146D-02 0.806D-01-0.434D-01 0.294D+00 0.668D+00
 Coeff:     -0.560D-03 0.146D-02 0.806D-01-0.434D-01 0.294D+00 0.668D+00
 Gap=     0.209 Goal=   None    Shift=    0.000
 RMSDP=1.52D-05 MaxDP=3.67D-04 DE=-4.41D-03 OVMax= 4.64D-04

 Cycle   7  Pass 0  IDiag  1:
 E= -212.559638202875     Delta-E=       -0.000001245012 Rises=F Damp=F
 DIIS: error= 3.55D-05 at cycle   7 NSaved=   7.
 NSaved= 7 IEnMin= 7 EnMin= -212.559638202875     IErMin= 7 ErrMin= 3.55D-05
 ErrMax= 3.55D-05  0.00D+00 EMaxC= 1.00D-01 BMatC= 2.10D-07 BMatP= 1.72D-06
 IDIUse=1 WtCom= 1.00D+00 WtEn= 0.00D+00
 Coeff-Com: -0.475D-04-0.172D-03 0.231D-01-0.120D-01 0.835D-01 0.338D+00
 Coeff-Com:  0.567D+00
 Coeff:     -0.475D-04-0.172D-03 0.231D-01-0.120D-01 0.835D-01 0.338D+00
 Coeff:      0.567D+00
 Gap=     0.209 Goal=   None    Shift=    0.000
 RMSDP=6.44D-06 MaxDP=7.44D-05 DE=-1.25D-06 OVMax= 1.07D-04

 Initial convergence to 1.0D-05 achieved.  Increase integral accuracy.
 Cycle   8  Pass 1  IDiag  1:
 E= -212.559620559152     Delta-E=        0.000017643723 Rises=F Damp=F
 DIIS: error= 9.73D-06 at cycle   1 NSaved=   1.
 NSaved= 1 IEnMin= 1 EnMin= -212.559620559152     IErMin= 1 ErrMin= 9.73D-06
 ErrMax= 9.73D-06  0.00D+00 EMaxC= 1.00D-01 BMatC= 1.75D-08 BMatP= 1.75D-08
 IDIUse=1 WtCom= 1.00D+00 WtEn= 0.00D+00
 Coeff-Com:  0.100D+01
 Coeff:      0.100D+01
 Gap=     0.209 Goal=   None    Shift=    0.000
 RMSDP=6.44D-06 MaxDP=7.44D-05 DE= 1.76D-05 OVMax= 1.06D-04

 Cycle   9  Pass 1  IDiag  1:
 E= -212.559620560568     Delta-E=       -0.000000001416 Rises=F Damp=F
 DIIS: error= 1.44D-05 at cycle   2 NSaved=   2.
 NSaved= 2 IEnMin= 2 EnMin= -212.559620560568     IErMin= 1 ErrMin= 9.73D-06
 ErrMax= 1.44D-05  0.00D+00 EMaxC= 1.00D-01 BMatC= 2.64D-08 BMatP= 1.75D-08
 IDIUse=1 WtCom= 1.00D+00 WtEn= 0.00D+00
 Coeff-Com:  0.567D+00 0.433D+00
 Coeff:      0.567D+00 0.433D+00
 Gap=     0.209 Goal=   None    Shift=    0.000
 RMSDP=1.97D-06 MaxDP=5.47D-05 DE=-1.42D-09 OVMax= 1.06D-04

 Cycle  10  Pass 1  IDiag  1:
 E= -212.559620580928     Delta-E=       -0.000000020360 Rises=F Damp=F
 DIIS: error= 6.52D-06 at cycle   3 NSaved=   3.
 NSaved= 3 IEnMin= 3 EnMin= -212.559620580928     IErMin= 3 ErrMin= 6.52D-06
 ErrMax= 6.52D-06  0.00D+00 EMaxC= 1.00D-01 BMatC= 4.25D-09 BMatP= 1.75D-08
 IDIUse=1 WtCom= 1.00D+00 WtEn= 0.00D+00
 Coeff-Com:  0.119D-01 0.282D+00 0.706D+00
 Coeff:      0.119D-01 0.282D+00 0.706D+00
 Gap=     0.209 Goal=   None    Shift=    0.000
 RMSDP=7.77D-07 MaxDP=1.62D-05 DE=-2.04D-08 OVMax= 3.08D-05

 Cycle  11  Pass 1  IDiag  1:
 E= -212.559620584549     Delta-E=       -0.000000003621 Rises=F Damp=F
 DIIS: error= 1.12D-06 at cycle   4 NSaved=   4.
 NSaved= 4 IEnMin= 4 EnMin= -212.559620584549     IErMin= 4 ErrMin= 1.12D-06
 ErrMax= 1.12D-06  0.00D+00 EMaxC= 1.00D-01 BMatC= 2.33D-10 BMatP= 4.25D-09
 IDIUse=1 WtCom= 1.00D+00 WtEn= 0.00D+00
 Coeff-Com: -0.165D-01 0.134D+00 0.376D+00 0.507D+00
 Coeff:     -0.165D-01 0.134D+00 0.376D+00 0.507D+00
 Gap=     0.209 Goal=   None    Shift=    0.000
 RMSDP=1.91D-07 MaxDP=2.52D-06 DE=-3.62D-09 OVMax= 3.26D-06

 Cycle  12  Pass 1  IDiag  1:
 E= -212.559620584764     Delta-E=       -0.000000000215 Rises=F Damp=F
 DIIS: error= 1.50D-07 at cycle   5 NSaved=   5.
 NSaved= 5 IEnMin= 5 EnMin= -212.559620584764     IErMin= 5 ErrMin= 1.50D-07
 ErrMax= 1.50D-07  0.00D+00 EMaxC= 1.00D-01 BMatC= 5.00D-12 BMatP= 2.33D-10
 IDIUse=1 WtCom= 1.00D+00 WtEn= 0.00D+00
 Coeff-Com: -0.668D-02 0.354D-01 0.100D+00 0.192D+00 0.679D+00
 Coeff:     -0.668D-02 0.354D-01 0.100D+00 0.192D+00 0.679D+00
 Gap=     0.209 Goal=   None    Shift=    0.000
 RMSDP=3.09D-08 MaxDP=5.19D-07 DE=-2.15D-10 OVMax= 6.42D-07

 Cycle  13  Pass 1  IDiag  1:
 E= -212.559620584769     Delta-E=       -0.000000000005 Rises=F Damp=F
 DIIS: error= 4.72D-08 at cycle   6 NSaved=   6.
 NSaved= 6 IEnMin= 6 EnMin= -212.559620584769     IErMin= 6 ErrMin= 4.72D-08
 ErrMax= 4.72D-08  0.00D+00 EMaxC= 1.00D-01 BMatC= 1.74D-13 BMatP= 5.00D-12
 IDIUse=1 WtCom= 1.00D+00 WtEn= 0.00D+00
 Coeff-Com: -0.101D-02 0.408D-02 0.854D-02 0.280D-01 0.167D+00 0.793D+00
 Coeff:     -0.101D-02 0.408D-02 0.854D-02 0.280D-01 0.167D+00 0.793D+00
 Gap=     0.209 Goal=   None    Shift=    0.000
 RMSDP=8.14D-09 MaxDP=9.05D-08 DE=-5.46D-12 OVMax= 1.71D-07

 SCF Done:  E(RB3LYP) =  -212.559620585     A.U. after   13 cycles
            NFock= 13  Conv=0.81D-08     -V/T= 2.0096
 KE= 2.105488154849D+02 PE=-8.409783720009D+02 EE= 2.435668056319D+02
 Leave Link  502 at Tue Feb  7 16:46:05 2017, MaxMem=  1048576000 cpu:        19.5
 (Enter /mnt/data/applications/G09/g09/l601.exe)
 Copying SCF densities to generalized density rwf, IOpCl= 0 IROHF=0.

 **********************************************************************

            Population analysis using the SCF density.

 **********************************************************************

 Alpha  occ. eigenvalues --  -14.29687 -10.23083 -10.19984 -10.17236 -10.17060
 Alpha  occ. eigenvalues --   -0.88139  -0.75507  -0.69879  -0.67512  -0.51020
 Alpha  occ. eigenvalues --   -0.45369  -0.44457  -0.43712  -0.41833  -0.40170
 Alpha  occ. eigenvalues --   -0.40105  -0.38107  -0.35835  -0.26326  -0.19333
 Alpha virt. eigenvalues --    0.01605   0.09780   0.13158   0.15261   0.15541
 Alpha virt. eigenvalues --    0.16643   0.17670   0.18334   0.18966   0.19797
 Alpha virt. eigenvalues --    0.22547   0.23706   0.29044   0.40831   0.46533
 Alpha virt. eigenvalues --    0.50317   0.53805   0.54881   0.57669   0.59173
 Alpha virt. eigenvalues --    0.60546   0.68066   0.70444   0.71138   0.74787
 Alpha virt. eigenvalues --    0.79271   0.82550   0.84135   0.86027   0.88231
 Alpha virt. eigenvalues --    0.91205   0.92167   0.93144   0.93985   0.95109
 Alpha virt. eigenvalues --    0.96696   0.98077   1.01469   1.11944   1.20538
 Alpha virt. eigenvalues --    1.35110   1.38608   1.39738   1.40953   1.52601
 Alpha virt. eigenvalues --    1.59385   1.73119   1.78098   1.81029   1.88509
 Alpha virt. eigenvalues --    1.89072   1.94382   2.02507   2.10347   2.12118
 Alpha virt. eigenvalues --    2.19220   2.19895   2.21827   2.29002   2.29965
 Alpha virt. eigenvalues --    2.34758   2.38528   2.47492   2.48801   2.62684
 Alpha virt. eigenvalues --    2.67479   2.89484   3.10871   3.91737   4.11441
 Alpha virt. eigenvalues --    4.27102   4.32642   4.47443
          Condensed to atoms (all electrons):
               1          2          3          4          5          6
     1  C    4.605764   0.326824  -0.023416  -0.022711  -0.023494   0.350962
     2  C    0.326824   5.288626   0.371030   0.347497   0.373597  -0.105001
     3  H   -0.023416   0.371030   0.537661  -0.028612  -0.026476   0.002592
     4  H   -0.022711   0.347497  -0.028612   0.576353  -0.029005   0.001288
     5  H   -0.023494   0.373597  -0.026476  -0.029005   0.538427   0.003139
     6  C    0.350962  -0.105001   0.002592   0.001288   0.003139   5.229132
     7  H   -0.026759   0.002854  -0.000060   0.000782   0.000013   0.361311
     8  H   -0.029287   0.003818   0.000277  -0.000191  -0.000005   0.361262
     9  N    0.659907  -0.099075  -0.004207   0.006234  -0.006291  -0.066068
    10  C   -0.069160  -0.012649   0.001015   0.000221   0.001738   0.008228
    11  H   -0.001575   0.003828   0.001666  -0.000125  -0.000709  -0.000485
    12  H   -0.001392   0.003696  -0.000570  -0.000102   0.002440  -0.000479
    13  H    0.001564  -0.000412  -0.000003   0.000007  -0.000023   0.000142
    14  H   -0.019985   0.006712  -0.000163  -0.000215  -0.000144   0.346229
               7          8          9         10         11         12
     1  C   -0.026759  -0.029287   0.659907  -0.069160  -0.001575  -0.001392
     2  C    0.002854   0.003818  -0.099075  -0.012649   0.003828   0.003696
     3  H   -0.000060   0.000277  -0.004207   0.001015   0.001666  -0.000570
     4  H    0.000782  -0.000191   0.006234   0.000221  -0.000125  -0.000102
     5  H    0.000013  -0.000005  -0.006291   0.001738  -0.000709   0.002440
     6  C    0.361311   0.361262  -0.066068   0.008228  -0.000485  -0.000479
     7  H    0.558211  -0.032524  -0.000177  -0.000190  -0.000005   0.000042
     8  H   -0.032524   0.563153   0.000406  -0.000194   0.000038  -0.000004
     9  N   -0.000177   0.000406   6.735062   0.288132  -0.032130  -0.031974
    10  C   -0.000190  -0.000194   0.288132   4.983503   0.351000   0.350350
    11  H   -0.000005   0.000038  -0.032130   0.351000   0.592881  -0.021935
    12  H    0.000042  -0.000004  -0.031974   0.350350  -0.021935   0.591453
    13  H   -0.000001  -0.000001  -0.052002   0.406519  -0.043300  -0.042875
    14  H   -0.022763  -0.023300   0.009854  -0.000522   0.000061   0.000054
              13         14
     1  C    0.001564  -0.019985
     2  C   -0.000412   0.006712
     3  H   -0.000003  -0.000163
     4  H    0.000007  -0.000215
     5  H   -0.000023  -0.000144
     6  C    0.000142   0.346229
     7  H   -0.000001  -0.022763
     8  H   -0.000001  -0.023300
     9  N   -0.052002   0.009854
    10  C    0.406519  -0.000522
    11  H   -0.043300   0.000061
    12  H   -0.042875   0.000054
    13  H    0.562205  -0.000110
    14  H   -0.000110   0.528631
 Mulliken charges:
               1
     1  C    0.272760
     2  C   -0.511344
     3  H    0.169266
     4  H    0.148579
     5  H    0.166794
     6  C   -0.492252
     7  H    0.159266
     8  H    0.156553
     9  N   -0.407672
    10  C   -0.307990
    11  H    0.150791
    12  H    0.151294
    13  H    0.168294
    14  H    0.175662
 Sum of Mulliken charges =   0.00000
 Mulliken charges with hydrogens summed into heavy atoms:
               1
     1  C    0.272760
     2  C   -0.026705
     6  C   -0.000771
     9  N   -0.407672
    10  C    0.162389
 Electronic spatial extent (au):  <R**2>=           1424.3877
 Charge=              0.0000 electrons
 Dipole moment (field-independent basis, Debye):
    X=             -1.3793    Y=             -0.0970    Z=             -0.0237  Tot=              1.3829
 Quadrupole moment (field-independent basis, Debye-Ang):
   XX=            -26.9967   YY=            -28.8587   ZZ=            -31.7709
   XY=             -1.4255   XZ=             -0.0693   YZ=              0.4502
 Traceless Quadrupole moment (field-independent basis, Debye-Ang):
   XX=              2.2120   YY=              0.3501   ZZ=             -2.5621
   XY=             -1.4255   XZ=             -0.0693   YZ=              0.4502
 Octapole moment (field-independent basis, Debye-Ang**2):
  XXX=            214.5380  YYY=            -68.8232  ZZZ=             -6.6483  XYY=             68.2705
  XXY=            -21.1284  XXZ=             -2.0563  XZZ=             73.7977  YZZ=            -26.5526
  YYZ=             -0.3836  XYZ=             -0.8108
 Hexadecapole moment (field-independent basis, Debye-Ang**3):
 XXXX=          -1270.1746 YYYY=           -535.2364 ZZZZ=            -59.6239 XXXY=            164.1777
 XXXZ=             14.3087 YYYX=            164.3128 YYYZ=            -30.8182 ZZZX=             14.0813
 ZZZY=            -33.2111 XXYY=           -291.3711 XXZZ=           -216.9559 YYZZ=           -101.6557
 XXYZ=            -10.0116 YYXZ=              2.4771 ZZXY=             57.4029
 N-N= 1.743031302994D+02 E-N=-8.409783679251D+02  KE= 2.105488154849D+02
 No NMR shielding tensors so no spin-rotation constants.
 Leave Link  601 at Tue Feb  7 16:46:05 2017, MaxMem=  1048576000 cpu:         1.7
 (Enter /mnt/data/applications/G09/g09/l701.exe)
 Compute integral first derivatives.
 ... and contract with generalized density number  0.
 Leave Link  701 at Tue Feb  7 16:46:05 2017, MaxMem=  1048576000 cpu:         1.7
 (Enter /mnt/data/applications/G09/g09/l702.exe)
 L702 exits ... SP integral derivatives will be done elsewhere.
 Leave Link  702 at Tue Feb  7 16:46:05 2017, MaxMem=  1048576000 cpu:         0.3
 (Enter /mnt/data/applications/G09/g09/l703.exe)
 Compute integral first derivatives, UseDBF=F ICtDFT=           0.
 Integral derivatives from FoFJK, PRISM(SPDF).
 Calling FoFJK, ICntrl=      2127 FMM=F ISym2X=0 I1Cent= 0 IOpClX= 0 NMat=1 NMatS=1 NMatT=0.
 FoFJK:  IHMeth= 1 ICntrl=    2127 DoSepK=F KAlg= 0 I1Cent=   0 FoldK=F
 IRaf=         0 NMat=   1 IRICut=       1 DoRegI=T DoRafI=F ISym2E= 0.
 FoFCou: FMM=F IPFlag=           0 FMFlag=      100000 FMFlg1=         800
         NFxFlg=           0 DoJE=F BraDBF=F KetDBF=F FulRan=T
         wScrn=  0.000000 ICntrl=    2127 IOpCl=  0 I1Cent=           0 NGrid=           0
         NMat0=    1 NMatS0=      1 NMatT0=    0 NMatD0=    1 NMtDS0=    0 NMtDT0=    0
 Symmetry not used in FoFCou.
 Leave Link  703 at Tue Feb  7 16:46:07 2017, MaxMem=  1048576000 cpu:         8.3
 (Enter /mnt/data/applications/G09/g09/l716.exe)
 Dipole        =-5.42659401D-01-3.81811638D-02-9.31169365D-03
 Cartesian Forces:  Max     0.056651010 RMS     0.018101747
 Leave Link  716 at Tue Feb  7 16:46:07 2017, MaxMem=  1048576000 cpu:         0.2
 (Enter /mnt/data/applications/G09/g09/l120.exe)
 SvSCFP is copying densities from files   528 and   530 to   603.
 ONIOM: saving gridpoint  2
 ONIOM: restoring gridpoint 17
 ONIOM: generating point  1 -- low level on model system.
 Leave Link  120 at Tue Feb  7 16:46:07 2017, MaxMem=  1048576000 cpu:         0.2
 (Enter /mnt/data/applications/G09/g09/l301.exe)
 Standard basis: STO-3G (5D, 7F)
 Ernie: Thresh=  0.10000D-02 Tol=  0.10000D-05 Strict=F.
    34 basis functions,   102 primitive gaussians,    34 cartesian basis functions
    20 alpha electrons       20 beta electrons
       nuclear repulsion energy       174.3031302994 Hartrees.
 IExCor=    0 DFT=F Ex=HF Corr=None ExCW=0 ScaHFX=  1.000000
 ScaDFX=  1.000000  1.000000  1.000000  1.000000 ScalE2=  1.000000  1.000000
 IRadAn=      0 IRanWt=     -1 IRanGd=            0 ICorTp=0 IEmpDi=  4
 NAtoms=   14 NActive=   14 NUniq=   14 SFac= 1.00D+00 NAtFMM=   60 NAOKFM=F Big=F
 Integral buffers will be    131072 words long.
 Raffenetti 1 integral format.
 Two-electron integral symmetry is turned off.
 Leave Link  301 at Tue Feb  7 16:46:07 2017, MaxMem=  1048576000 cpu:         0.4
 (Enter /mnt/data/applications/G09/g09/l402.exe)
 External calculation of energy and first derivatives.
 Running external command "./sictwo_files/sictwo_g09d01 M"
         input file       "/scratch/Gau-11639.EIn"
         output file      "/scratch/Gau-11639.EOu"
         message file     "/scratch/Gau-11639.EMs"
         fchk file        "/scratch/Gau-11639.EFC"
         mat. el file     "/scratch/Gau-11639.EUF"

---------------------------- SICTWO Version 1.0 STARTED -----------------------------

MM calculations started
MM calculations finished ....
Information recovery

---------------------------- SICTWO Version 1.0 FINISHED -----------------------------

 Recovered energy= 0.446385169711E-01 dipole=     -0.757353410275     -0.430019364899     -0.064522576252
 Energy=    4.463851697E-02 NIter=   0.
 Dipole moment=      -0.757353      -0.430019      -0.064523
 Leave Link  402 at Tue Feb  7 16:46:10 2017, MaxMem=  1048576000 cpu:        17.8
 (Enter /mnt/data/applications/G09/g09/l601.exe)
 Leave Link  601 at Tue Feb  7 16:46:10 2017, MaxMem=  1048576000 cpu:         0.2
 (Enter /mnt/data/applications/G09/g09/l716.exe)
 Dipole        =-7.57353410D-01-4.30019365D-01-6.45225763D-02
 Cartesian Forces:  Max     0.045356813 RMS     0.014802526
 Leave Link  716 at Tue Feb  7 16:46:10 2017, MaxMem=  1048576000 cpu:         0.2
 (Enter /mnt/data/applications/G09/g09/l120.exe)
 SvSCFP did not find density file   528.
 ONIOM: saving gridpoint  1
 ONIOM: restoring gridpoint  3
 ONIOM: calculating energy.
 ONIOM: gridpoint  1 method:  low   system:  model energy:     0.044638516971
 ONIOM: gridpoint  2 method:  high  system:  model energy:  -212.559620584769
 ONIOM: gridpoint  3 method:  low   system:  real  energy:     0.044638516971
 ONIOM: extrapolated energy =    -212.559620584769
 ONIOM: calculating first derivatives.
 ONIOM: calculating electric field derivatives.
 ONIOM: Integrating ONIOM file  4 number   619
 ONIOM: Dipole        =-5.42659401D-01-3.81811638D-02-9.31169365D-03
 ONIOM: Dipole moment (Debye):
    X=    -1.3793    Y=    -0.0970    Z=    -0.0237  Tot=     1.3829
 ONIOM: Integrating ONIOM file  5 number   695
 Nuclear Quadrupole Tensors: 
                 1             2             3             4             5 
      1   0.118646D+00 -0.352861D-01  0.111588D+00  0.108324D+00  0.111119D+00
      2  -0.196915D-01  0.103767D-02  0.791395D-01 -0.158234D+00  0.782907D-01
      3   0.160423D+00  0.262390D-01  0.566708D-01 -0.277706D+00  0.561176D-01
      4  -0.368077D-02  0.293805D-02 -0.137608D+00  0.283600D-03  0.137180D+00
      5   0.675942D-01  0.439648D-02  0.195042D+00 -0.469065D-03 -0.195103D+00
      6  -0.279069D+00  0.904709D-02 -0.168259D+00  0.169382D+00 -0.167236D+00
                 6             7             8             9            10 
      1   0.277942D-01  0.148106D+00  0.124025D+00  0.120379D+01  0.125091D+00
      2   0.742773D-01 -0.582373D-01 -0.600674D-01 -0.184008D+00  0.723661D-01
      3  -0.337179D-01 -0.246289D-01  0.744851D-01 -0.554862D+00 -0.225367D+00
      4   0.833133D-02  0.776534D-01 -0.127215D+00 -0.400999D-01  0.112987D-01
      5  -0.861699D-02  0.237855D+00 -0.186540D+00  0.176414D-01 -0.504229D-01
      6   0.592374D-02 -0.123477D+00 -0.198510D+00 -0.648930D+00  0.100277D+00
                11            12            13            14 
      1   0.242571D-01  0.411782D-01 -0.208504D+00  0.000000D+00
      2   0.985056D-01  0.317379D-01 -0.209495D+00  0.000000D+00
      3   0.958135D-01  0.153304D+00  0.406911D-01  0.000000D+00
      4  -0.207825D+00  0.219391D+00 -0.233458D-01  0.000000D+00
      5   0.135879D+00 -0.539324D-01 -0.148317D-01  0.000000D+00
      6  -0.120071D+00 -0.194482D+00  0.167813D+00  0.000000D+00
 Saving ESP charges from gridpoint 2
 Leave Link  120 at Tue Feb  7 16:46:10 2017, MaxMem=  1048576000 cpu:         0.0
 (Enter /mnt/data/applications/G09/g09/l716.exe)
 Dipole        =-5.42659401D-01-3.81811638D-02-9.31169365D-03
 -------------------------------------------------------------------
 Center     Atomic                   Forces (Hartrees/Bohr)
 Number     Number              X              Y              Z
 -------------------------------------------------------------------
      1        6          -0.001806152    0.056651010    0.008800599
      2        6           0.029137500   -0.015096899   -0.000086278
      3        1          -0.007947243    0.008357516   -0.014137392
      4        1          -0.012045415   -0.014936209   -0.000447460
      5        1          -0.007423349    0.008657548    0.013201505
      6        6          -0.013697689    0.033337800    0.003784275
      7        1          -0.004514611   -0.013724271    0.012603322
      8        1          -0.006056384   -0.010659564   -0.014720363
      9        7           0.033373004   -0.032429812   -0.005399408
     10        6          -0.015036766   -0.049533475   -0.007704576
     11        1          -0.012084040    0.011948153   -0.013021753
     12        1          -0.011534705    0.007265346    0.016427691
     13        1           0.014928511    0.006249939    0.000745155
     14        1           0.014707340    0.003912917   -0.000045317
 -------------------------------------------------------------------
 Cartesian Forces:  Max     0.056651010 RMS     0.018101747
 Leave Link  716 at Tue Feb  7 16:46:10 2017, MaxMem=  1048576000 cpu:         0.3
 (Enter /mnt/data/applications/G09/g09/l103.exe)

 GradGradGradGradGradGradGradGradGradGradGradGradGradGradGradGradGradGrad
 Berny optimization.
 FormGI is forming the generalized inverse of G from B-inverse, IUseBI=4.
 Internal  Forces:  Max     0.063967824 RMS     0.014262643
 Search for a local minimum.
 Step number   1 out of a maximum of   62
 All quantities printed in internal units (Hartrees-Bohrs-Radians)
 RMS Force = .14263D-01 SwitMx=.10000D-02 MixMth= 1
 Mixed Optimization -- RFO/linear search
 Second derivative matrix not updated -- first step.
 ITU=  0
     Eigenvalues ---    0.00237   0.00237   0.00647   0.00766   0.03099
     Eigenvalues ---    0.07243   0.07243   0.07243   0.07243   0.10141
     Eigenvalues ---    0.10141   0.16000   0.16000   0.16000   0.16000
     Eigenvalues ---    0.16000   0.16000   0.16000   0.16000   0.16000
     Eigenvalues ---    0.25000   0.25000   0.25000   0.28519   0.28519
     Eigenvalues ---    0.35740   0.37230   0.37230   0.37230   0.37230
     Eigenvalues ---    0.37230   0.37230   0.37230   0.37230   0.37230
     Eigenvalues ---    0.69002
 RFO step:  Lambda=-3.02000993D-02 EMin= 2.36824121D-03
 Linear search not attempted -- first point.
 Maximum step size (   0.300) exceeded in Quadratic search.
    -- Step size scaled by   0.974
 Iteration  1 RMS(Cart)=  0.09101141 RMS(Int)=  0.00471105
 Iteration  2 RMS(Cart)=  0.01918301 RMS(Int)=  0.00019909
 Iteration  3 RMS(Cart)=  0.00013707 RMS(Int)=  0.00017458
 Iteration  4 RMS(Cart)=  0.00000002 RMS(Int)=  0.00017458
 ITry= 1 IFail=0 DXMaxC= 2.86D-01 DCOld= 1.00D+10 DXMaxT= 3.00D-01 DXLimC= 3.00D+00 Rises=F
 Variable       Old X    -DE/DX   Delta X   Delta X   Delta X     New X
                                 (Linear)    (Quad)   (Total)
    R1        2.91018  -0.00172   0.00000  -0.00531  -0.00531   2.90487
    R2        2.91018  -0.01601   0.00000  -0.04942  -0.04942   2.86076
    R3        2.44455  -0.04479   0.00000  -0.06055  -0.06055   2.38400
    R4        2.02201   0.01813   0.00000   0.04387   0.04387   2.06587
    R5        2.02201   0.01810   0.00000   0.04378   0.04378   2.06578
    R6        2.02201   0.01734   0.00000   0.04194   0.04194   2.06395
    R7        2.02201   0.01895   0.00000   0.04585   0.04585   2.06786
    R8        2.02201   0.01892   0.00000   0.04578   0.04578   2.06778
    R9        2.02201   0.01517   0.00000   0.03670   0.03670   2.05870
   R10        2.77790  -0.01979   0.00000  -0.04972  -0.04972   2.72818
   R11        2.02201   0.02073   0.00000   0.05015   0.05015   2.07215
   R12        2.02201   0.02075   0.00000   0.05020   0.05020   2.07221
   R13        2.02201   0.01609   0.00000   0.03893   0.03893   2.06094
    A1        2.09241  -0.01025   0.00000  -0.03562  -0.03562   2.05679
    A2        2.09241   0.01822   0.00000   0.06331   0.06331   2.15573
    A3        2.09836  -0.00797   0.00000  -0.02769  -0.02769   2.07066
    A4        1.91063   0.00074   0.00000   0.00169   0.00154   1.91217
    A5        1.91063   0.00899   0.00000   0.04921   0.04891   1.95954
    A6        1.91063   0.00052   0.00000   0.00160   0.00141   1.91204
    A7        1.91063  -0.00425   0.00000  -0.01960  -0.01985   1.89078
    A8        1.91063  -0.00244   0.00000  -0.01882  -0.01885   1.89178
    A9        1.91063  -0.00357   0.00000  -0.01408  -0.01441   1.89622
   A10        1.91063   0.00191   0.00000   0.00836   0.00837   1.91900
   A11        1.91063   0.00230   0.00000   0.01110   0.01111   1.92174
   A12        1.91063  -0.00184   0.00000  -0.00734  -0.00733   1.90331
   A13        1.91063  -0.00330   0.00000  -0.02108  -0.02108   1.88956
   A14        1.91063   0.00037   0.00000   0.00327   0.00328   1.91391
   A15        1.91063   0.00057   0.00000   0.00568   0.00569   1.91632
   A16        2.44342  -0.06397   0.00000  -0.22230  -0.22230   2.22111
   A17        1.91063   0.00719   0.00000   0.03767   0.03742   1.94806
   A18        1.91063   0.00645   0.00000   0.03355   0.03329   1.94393
   A19        1.91063  -0.00535   0.00000  -0.02879  -0.02865   1.88199
   A20        1.91063  -0.00529   0.00000  -0.02427  -0.02486   1.88577
   A21        1.91063  -0.00151   0.00000  -0.00879  -0.00865   1.90199
   A22        1.91063  -0.00149   0.00000  -0.00937  -0.00924   1.90139
    D1       -1.94508  -0.00085   0.00000  -0.00548  -0.00555  -1.95063
    D2        0.14931  -0.00010   0.00000   0.00168   0.00168   0.15100
    D3        2.24371   0.00136   0.00000   0.01555   0.01570   2.25941
    D4        1.19651  -0.00095   0.00000  -0.00795  -0.00807   1.18845
    D5       -2.99228  -0.00019   0.00000  -0.00078  -0.00084  -2.99311
    D6       -0.89788   0.00127   0.00000   0.01309   0.01318  -0.88470
    D7       -1.11542   0.00072   0.00000   0.00833   0.00836  -1.10705
    D8        0.97898  -0.00075   0.00000  -0.00556  -0.00552   0.97346
    D9        3.07337   0.00023   0.00000   0.00370   0.00375   3.07712
   D10        2.02617   0.00081   0.00000   0.01080   0.01076   2.03693
   D11       -2.16262  -0.00065   0.00000  -0.00309  -0.00313  -2.16574
   D12       -0.06822   0.00032   0.00000   0.00618   0.00614  -0.06208
   D13        0.00000   0.00014   0.00000   0.00278   0.00281   0.00281
   D14        3.14159   0.00005   0.00000   0.00030   0.00027  -3.14132
   D15       -1.02734  -0.00096   0.00000  -0.00877  -0.00935  -1.03668
   D16        1.06706   0.00092   0.00000   0.00512   0.00569   1.07275
   D17       -3.12173  -0.00024   0.00000  -0.00344  -0.00342  -3.12515
         Item               Value     Threshold  Converged?
 Maximum Force            0.063968     0.000450     NO 
 RMS     Force            0.014263     0.000300     NO 
 Maximum Displacement     0.285964     0.001800     NO 
 RMS     Displacement     0.108988     0.001200     NO 
 Predicted change in Energy=-1.646404D-02
 Lowest energy point so far.  Saving SCF results.
 GradGradGradGradGradGradGradGradGradGradGradGradGradGradGradGradGradGrad

 Leave Link  103 at Tue Feb  7 16:46:10 2017, MaxMem=  1048576000 cpu:         0.1
 (Enter /mnt/data/applications/G09/g09/l202.exe)
                          Input orientation:                          
 ---------------------------------------------------------------------
 Center     Atomic      Atomic             Coordinates (Angstroms)
 Number     Number       Type             X           Y           Z
 ---------------------------------------------------------------------
      1          6    10061002       -2.296579    0.429769    0.007534
      2          6    10061003       -3.833556    0.454828    0.013105
      3          1    10011000       -4.194228    0.981438   -0.874426
      4          1    10011000       -4.264321   -0.549885    0.015564
      5          1    10011000       -4.187211    0.988551    0.897953
      6          6    10061003       -1.611876   -0.905091   -0.195126
      7          1    10011000       -1.852287   -1.577702    0.633857
      8          1    10011000       -1.958144   -1.368296   -1.124031
      9          7    10071002       -1.582596    1.458665    0.159625
     10          6    10061003       -2.035201    2.814115    0.364924
     11          1    10011000       -2.657711    3.162606   -0.467799
     12          1    10011000       -2.620579    2.904632    1.287743
     13          1    10011000       -1.154213    3.452518    0.440482
     14          1    10011000       -0.534623   -0.749020   -0.239874
 ---------------------------------------------------------------------
                    Distance matrix (angstroms):
                    1          2          3          4          5
     1  C    0.000000
     2  C    1.537191   0.000000
     3  H    2.164085   1.093213   0.000000
     4  H    2.198135   1.093166   1.772553   0.000000
     5  H    2.163232   1.092194   1.772408   1.775202   0.000000
     6  C    1.513850   2.613159   3.269401   2.684405   3.378321
     7  H    2.149329   2.905500   3.782697   2.693808   3.479550
     8  H    2.151283   2.852022   3.253248   2.699431   3.822550
     9  N    1.261558   2.469003   2.849145   3.353607   2.747755
    10  C    2.425108   2.987322   3.091292   4.050620   2.871925
    11  H    2.797276   2.990977   2.698837   4.073994   2.988505
    12  H    2.805148   3.016215   3.293937   4.031627   2.505522
    13  H    3.260284   4.043226   4.132422   5.086507   3.934399
    14  H    2.134302   3.520825   4.097542   3.743735   4.201810
                    6          7          8          9         10
     6  C    0.000000
     7  H    1.094265   0.000000
     8  H    1.094223   1.773478   0.000000
     9  N    2.390407   3.084988   3.127382   0.000000
    10  C    3.784884   4.403843   4.440212   1.443691   0.000000
    11  H    4.208833   4.932836   4.631318   2.110202   1.096536
    12  H    4.210744   4.594470   4.951099   2.107339   1.096566
    13  H    4.427438   5.082107   5.131691   2.058602   1.090600
    14  H    1.089419   1.785037   1.786518   2.476231   3.913240
                   11         12         13         14
    11  H    0.000000
    12  H    1.774784   0.000000
    13  H    1.780318   1.779961   0.000000
    14  H    4.456487   4.475935   4.301127   0.000000
 Symmetry turned off by external request.
 Stoichiometry    C4H9N
 Framework group  C1[X(C4H9N)]
 Deg. of freedom    36
 Full point group                 C1      NOp   1
 Rotational constants (GHZ):      8.0783376      3.8257768      2.7295732
 Leave Link  202 at Tue Feb  7 16:46:10 2017, MaxMem=  1048576000 cpu:         0.0
 (Enter /mnt/data/applications/G09/g09/l120.exe)
 SvSCFP did not find density file   528.
 ONIOM: saving gridpoint 17
 ONIOM: restoring gridpoint  3
 ONIOM: restoring gridpoint  3 on chk file.
 ONIOM: generating point  3 -- low level on real system.
 Leave Link  120 at Tue Feb  7 16:46:10 2017, MaxMem=  1048576000 cpu:         0.0
 (Enter /mnt/data/applications/G09/g09/l301.exe)
 Standard basis: STO-3G (5D, 7F)
 Ernie: Thresh=  0.10000D-02 Tol=  0.10000D-05 Strict=F.
    34 basis functions,   102 primitive gaussians,    34 cartesian basis functions
    20 alpha electrons       20 beta electrons
       nuclear repulsion energy       176.9231473249 Hartrees.
 IExCor=    0 DFT=F Ex=HF Corr=None ExCW=0 ScaHFX=  1.000000
 ScaDFX=  1.000000  1.000000  1.000000  1.000000 ScalE2=  1.000000  1.000000
 IRadAn=      0 IRanWt=     -1 IRanGd=            0 ICorTp=0 IEmpDi=  4
 NAtoms=   14 NActive=   14 NUniq=   14 SFac= 1.00D+00 NAtFMM=   60 NAOKFM=F Big=F
 Integral buffers will be    131072 words long.
 Raffenetti 1 integral format.
 Two-electron integral symmetry is turned off.
 Leave Link  301 at Tue Feb  7 16:46:10 2017, MaxMem=  1048576000 cpu:         0.4
 (Enter /mnt/data/applications/G09/g09/l402.exe)
 External calculation of energy and first derivatives.
 Running external command "./sictwo_files/sictwo_g09d01 R"
         input file       "/scratch/Gau-11639.EIn"
         output file      "/scratch/Gau-11639.EOu"
         message file     "/scratch/Gau-11639.EMs"
         fchk file        "/scratch/Gau-11639.EFC"
         mat. el file     "/scratch/Gau-11639.EUF"

---------------------------- SICTWO Version 1.0 STARTED -----------------------------

MM calculations started
MM calculations finished ....
Information recovery

---------------------------- SICTWO Version 1.0 FINISHED -----------------------------

 Recovered energy= 0.281778935219E-01 dipole=     -0.915905838504     -0.395790925058     -0.056653969392
 Energy=    2.817789352E-02 NIter=   0.
 Dipole moment=      -0.915906      -0.395791      -0.056654
 Leave Link  402 at Tue Feb  7 16:46:13 2017, MaxMem=  1048576000 cpu:        18.2
 (Enter /mnt/data/applications/G09/g09/l716.exe)
 Dipole        =-9.15905839D-01-3.95790925D-01-5.66539694D-02
 Cartesian Forces:  Max     0.034428865 RMS     0.008588236
 Leave Link  716 at Tue Feb  7 16:46:13 2017, MaxMem=  1048576000 cpu:         0.2
 (Enter /mnt/data/applications/G09/g09/l120.exe)
 SvSCFP did not find density file   528.
 ONIOM: saving gridpoint  3
 ONIOM: restoring gridpoint  2
 ONIOM: restoring gridpoint  2 on chk file.
 ONIOM: generating point  2 -- high level on model system.
 Leave Link  120 at Tue Feb  7 16:46:13 2017, MaxMem=  1048576000 cpu:         0.0
 (Enter /mnt/data/applications/G09/g09/l301.exe)
 Standard basis: 6-31G(d) (6D, 7F)
 Ernie: Thresh=  0.10000D-02 Tol=  0.10000D-05 Strict=F.
    93 basis functions,   176 primitive gaussians,    93 cartesian basis functions
    20 alpha electrons       20 beta electrons
       nuclear repulsion energy       176.9231473249 Hartrees.
 IExCor=  402 DFT=T Ex+Corr=B3LYP ExCW=0 ScaHFX=  0.200000
 ScaDFX=  0.800000  0.720000  1.000000  0.810000 ScalE2=  1.000000  1.000000
 IRadAn=      0 IRanWt=     -1 IRanGd=            0 ICorTp=0 IEmpDi=  4
 NAtoms=   14 NActive=   14 NUniq=   14 SFac= 1.00D+00 NAtFMM=   60 NAOKFM=F Big=F
 Integral buffers will be    131072 words long.
 Raffenetti 2 integral format.
 Two-electron integral symmetry is turned off.
 Leave Link  301 at Tue Feb  7 16:46:13 2017, MaxMem=  1048576000 cpu:         0.3
 (Enter /mnt/data/applications/G09/g09/l302.exe)
 NPDir=0 NMtPBC=     1 NCelOv=     1 NCel=       1 NClECP=     1 NCelD=      1
         NCelK=      1 NCelE2=     1 NClLst=     1 CellRange=     0.0.
 One-electron integrals computed using PRISM.
 NBasis=    93 RedAO= T EigKep=  3.42D-03  NBF=    93
 NBsUse=    93 1.00D-06 EigRej= -1.00D+00 NBFU=    93
 Precomputing XC quadrature grid using
 IXCGrd= 4 IRadAn=           0 IRanWt=          -1 IRanGd=           0 AccXCQ= 0.00D+00.
 Generated NRdTot=       0 NPtTot=           0 NUsed=           0 NTot=          32
 NSgBfM=    93    93    93    93    93 MxSgAt=    14 MxSgA2=    14.
 Leave Link  302 at Tue Feb  7 16:46:14 2017, MaxMem=  1048576000 cpu:         1.8
 (Enter /mnt/data/applications/G09/g09/l303.exe)
 DipDrv:  MaxL=1.
 Leave Link  303 at Tue Feb  7 16:46:14 2017, MaxMem=  1048576000 cpu:         0.3
 (Enter /mnt/data/applications/G09/g09/l401.exe)
 Initial guess from the checkpoint file:  "I_1.chk"
 B after Tr=     0.052483   -0.020502   -0.006478
         Rot=    0.999998    0.000050   -0.000699    0.002121 Ang=   0.26 deg.
 Guess basis will be translated and rotated to current coordinates.
 JPrj=2 DoOrth=T DoCkMO=T.
 Generating alternative initial guess.
 ExpMin= 1.61D-01 ExpMax= 4.17D+03 ExpMxC= 6.27D+02 IAcc=1 IRadAn=         1 AccDes= 0.00D+00
 Harris functional with IExCor=  402 and IRadAn=       1 diagonalized for initial guess.
 HarFok:  IExCor=  402 AccDes= 0.00D+00 IRadAn=         1 IDoV= 1 UseB2=F ITyADJ=14
 ICtDFT=  3500011 ScaDFX=  1.000000  1.000000  1.000000  1.000000
 FoFCou: FMM=F IPFlag=           0 FMFlag=      100000 FMFlg1=           0
         NFxFlg=           0 DoJE=T BraDBF=F KetDBF=T FulRan=T
         wScrn=  0.000000 ICntrl=     500 IOpCl=  0 I1Cent=   200000004 NGrid=           0
         NMat0=    1 NMatS0=      1 NMatT0=    0 NMatD0=    1 NMtDS0=    0 NMtDT0=    0
 Symmetry not used in FoFCou.
 Harris En= -212.624061131867    
 Leave Link  401 at Tue Feb  7 16:46:14 2017, MaxMem=  1048576000 cpu:         2.9
 (Enter /mnt/data/applications/G09/g09/l502.exe)
 Closed shell SCF:
 Using DIIS extrapolation, IDIIS=  1040.
 Two-electron integral symmetry not used.
 Keep R1 ints in memory in canonical form, NReq=10509401.
 IVT=       39303 IEndB=       39303 NGot=  1048576000 MDV=  1038981692
 LenX=  1038981692 LenY=  1038972602
 Requested convergence on RMS density matrix=1.00D-08 within 100 cycles.
 Requested convergence on MAX density matrix=1.00D-06.
 Requested convergence on             energy=1.00D-06.
 No special actions if energy rises.
 FoFCou: FMM=F IPFlag=           0 FMFlag=           0 FMFlg1=           0
         NFxFlg=           0 DoJE=F BraDBF=F KetDBF=F FulRan=T
         wScrn=  0.000000 ICntrl=     600 IOpCl=  0 I1Cent=           0 NGrid=           0
         NMat0=    1 NMatS0=   4371 NMatT0=    0 NMatD0=    1 NMtDS0=    0 NMtDT0=    0
 Symmetry not used in FoFCou.
 Integral accuracy reduced to 1.0D-05 until final iterations.

 Cycle   1  Pass 0  IDiag  1:
 E= -212.566610010092    
 DIIS: error= 6.04D-03 at cycle   1 NSaved=   1.
 NSaved= 1 IEnMin= 1 EnMin= -212.566610010092     IErMin= 1 ErrMin= 6.04D-03
 ErrMax= 6.04D-03  0.00D+00 EMaxC= 1.00D-01 BMatC= 6.89D-03 BMatP= 6.89D-03
 IDIUse=3 WtCom= 9.40D-01 WtEn= 6.04D-02
 Coeff-Com:  0.100D+01
 Coeff-En:   0.100D+01
 Coeff:      0.100D+01
 Gap=     1.932 Goal=   None    Shift=    0.000
 GapD=    1.932 DampG=2.000 DampE=1.000 DampFc=2.0000 IDamp=-1.
 RMSDP=1.63D-03 MaxDP=2.12D-02              OVMax= 3.59D-02

 Cycle   2  Pass 0  IDiag  1:
 E= -212.578145092245     Delta-E=       -0.011535082153 Rises=F Damp=F
 DIIS: error= 2.55D-03 at cycle   2 NSaved=   2.
 NSaved= 2 IEnMin= 2 EnMin= -212.578145092245     IErMin= 2 ErrMin= 2.55D-03
 ErrMax= 2.55D-03  0.00D+00 EMaxC= 1.00D-01 BMatC= 7.97D-04 BMatP= 6.89D-03
 IDIUse=3 WtCom= 9.74D-01 WtEn= 2.55D-02
 Coeff-Com:  0.112D+00 0.888D+00
 Coeff-En:   0.000D+00 0.100D+01
 Coeff:      0.109D+00 0.891D+00
 Gap=     0.231 Goal=   None    Shift=    0.000
 RMSDP=5.71D-04 MaxDP=9.78D-03 DE=-1.15D-02 OVMax= 1.48D-02

 Cycle   3  Pass 0  IDiag  1:
 E= -212.577931415318     Delta-E=        0.000213676927 Rises=F Damp=F
 DIIS: error= 2.86D-03 at cycle   3 NSaved=   3.
 NSaved= 3 IEnMin= 2 EnMin= -212.578145092245     IErMin= 2 ErrMin= 2.55D-03
 ErrMax= 2.86D-03  0.00D+00 EMaxC= 1.00D-01 BMatC= 1.11D-03 BMatP= 7.97D-04
 IDIUse=3 WtCom= 1.58D-01 WtEn= 8.42D-01
 Coeff-Com: -0.322D-01 0.554D+00 0.478D+00
 Coeff-En:   0.000D+00 0.556D+00 0.444D+00
 Coeff:     -0.508D-02 0.555D+00 0.450D+00
 Gap=     0.235 Goal=   None    Shift=    0.000
 RMSDP=3.72D-04 MaxDP=8.16D-03 DE= 2.14D-04 OVMax= 1.30D-02

 Cycle   4  Pass 0  IDiag  1:
 E= -212.578866406372     Delta-E=       -0.000934991054 Rises=F Damp=F
 DIIS: error= 5.96D-04 at cycle   4 NSaved=   4.
 NSaved= 4 IEnMin= 4 EnMin= -212.578866406372     IErMin= 4 ErrMin= 5.96D-04
 ErrMax= 5.96D-04  0.00D+00 EMaxC= 1.00D-01 BMatC= 6.09D-05 BMatP= 7.97D-04
 IDIUse=3 WtCom= 9.94D-01 WtEn= 5.96D-03
 Coeff-Com: -0.259D-01 0.312D+00 0.295D+00 0.419D+00
 Coeff-En:   0.000D+00 0.000D+00 0.000D+00 0.100D+01
 Coeff:     -0.257D-01 0.310D+00 0.293D+00 0.422D+00
 Gap=     0.233 Goal=   None    Shift=    0.000
 RMSDP=7.30D-05 MaxDP=1.81D-03 DE=-9.35D-04 OVMax= 3.57D-03

 Cycle   5  Pass 0  IDiag  1:
 E= -212.578921067336     Delta-E=       -0.000054660964 Rises=F Damp=F
 DIIS: error= 8.92D-05 at cycle   5 NSaved=   5.
 NSaved= 5 IEnMin= 5 EnMin= -212.578921067336     IErMin= 5 ErrMin= 8.92D-05
 ErrMax= 8.92D-05  0.00D+00 EMaxC= 1.00D-01 BMatC= 7.69D-07 BMatP= 6.09D-05
 IDIUse=1 WtCom= 1.00D+00 WtEn= 0.00D+00
 Coeff-Com: -0.465D-02 0.431D-01 0.453D-01 0.127D+00 0.789D+00
 Coeff:     -0.465D-02 0.431D-01 0.453D-01 0.127D+00 0.789D+00
 Gap=     0.233 Goal=   None    Shift=    0.000
 RMSDP=1.63D-05 MaxDP=2.14D-04 DE=-5.47D-05 OVMax= 3.57D-04

 Cycle   6  Pass 0  IDiag  1:
 E= -212.578921718470     Delta-E=       -0.000000651134 Rises=F Damp=F
 DIIS: error= 2.92D-05 at cycle   6 NSaved=   6.
 NSaved= 6 IEnMin= 6 EnMin= -212.578921718470     IErMin= 6 ErrMin= 2.92D-05
 ErrMax= 2.92D-05  0.00D+00 EMaxC= 1.00D-01 BMatC= 1.15D-07 BMatP= 7.69D-07
 IDIUse=1 WtCom= 1.00D+00 WtEn= 0.00D+00
 Coeff-Com: -0.116D-02 0.670D-02 0.825D-02 0.392D-01 0.365D+00 0.582D+00
 Coeff:     -0.116D-02 0.670D-02 0.825D-02 0.392D-01 0.365D+00 0.582D+00
 Gap=     0.233 Goal=   None    Shift=    0.000
 RMSDP=5.28D-06 MaxDP=7.14D-05 DE=-6.51D-07 OVMax= 8.18D-05

 Initial convergence to 1.0D-05 achieved.  Increase integral accuracy.
 Cycle   7  Pass 1  IDiag  1:
 E= -212.578935233872     Delta-E=       -0.000013515402 Rises=F Damp=F
 DIIS: error= 8.99D-06 at cycle   1 NSaved=   1.
 NSaved= 1 IEnMin= 1 EnMin= -212.578935233872     IErMin= 1 ErrMin= 8.99D-06
 ErrMax= 8.99D-06  0.00D+00 EMaxC= 1.00D-01 BMatC= 1.53D-08 BMatP= 1.53D-08
 IDIUse=1 WtCom= 1.00D+00 WtEn= 0.00D+00
 Coeff-Com:  0.100D+01
 Coeff:      0.100D+01
 Gap=     0.233 Goal=   None    Shift=    0.000
 RMSDP=5.28D-06 MaxDP=7.14D-05 DE=-1.35D-05 OVMax= 5.35D-05

 Cycle   8  Pass 1  IDiag  1:
 E= -212.578935247542     Delta-E=       -0.000000013670 Rises=F Damp=F
 DIIS: error= 6.52D-06 at cycle   2 NSaved=   2.
 NSaved= 2 IEnMin= 2 EnMin= -212.578935247542     IErMin= 2 ErrMin= 6.52D-06
 ErrMax= 6.52D-06  0.00D+00 EMaxC= 1.00D-01 BMatC= 7.25D-09 BMatP= 1.53D-08
 IDIUse=1 WtCom= 1.00D+00 WtEn= 0.00D+00
 Coeff-Com:  0.375D+00 0.625D+00
 Coeff:      0.375D+00 0.625D+00
 Gap=     0.233 Goal=   None    Shift=    0.000
 RMSDP=1.38D-06 MaxDP=2.50D-05 DE=-1.37D-08 OVMax= 4.41D-05

 Cycle   9  Pass 1  IDiag  1:
 E= -212.578935252526     Delta-E=       -0.000000004984 Rises=F Damp=F
 DIIS: error= 4.48D-06 at cycle   3 NSaved=   3.
 NSaved= 3 IEnMin= 3 EnMin= -212.578935252526     IErMin= 3 ErrMin= 4.48D-06
 ErrMax= 4.48D-06  0.00D+00 EMaxC= 1.00D-01 BMatC= 2.64D-09 BMatP= 7.25D-09
 IDIUse=1 WtCom= 1.00D+00 WtEn= 0.00D+00
 Coeff-Com:  0.456D-01 0.369D+00 0.586D+00
 Coeff:      0.456D-01 0.369D+00 0.586D+00
 Gap=     0.233 Goal=   None    Shift=    0.000
 RMSDP=6.13D-07 MaxDP=1.49D-05 DE=-4.98D-09 OVMax= 3.01D-05

 Cycle  10  Pass 1  IDiag  1:
 E= -212.578935254594     Delta-E=       -0.000000002068 Rises=F Damp=F
 DIIS: error= 2.13D-06 at cycle   4 NSaved=   4.
 NSaved= 4 IEnMin= 4 EnMin= -212.578935254594     IErMin= 4 ErrMin= 2.13D-06
 ErrMax= 2.13D-06  0.00D+00 EMaxC= 1.00D-01 BMatC= 5.85D-10 BMatP= 2.64D-09
 IDIUse=1 WtCom= 1.00D+00 WtEn= 0.00D+00
 Coeff-Com: -0.137D-01 0.182D+00 0.392D+00 0.440D+00
 Coeff:     -0.137D-01 0.182D+00 0.392D+00 0.440D+00
 Gap=     0.233 Goal=   None    Shift=    0.000
 RMSDP=2.67D-07 MaxDP=6.56D-06 DE=-2.07D-09 OVMax= 1.03D-05

 Cycle  11  Pass 1  IDiag  1:
 E= -212.578935255097     Delta-E=       -0.000000000504 Rises=F Damp=F
 DIIS: error= 2.37D-07 at cycle   5 NSaved=   5.
 NSaved= 5 IEnMin= 5 EnMin= -212.578935255097     IErMin= 5 ErrMin= 2.37D-07
 ErrMax= 2.37D-07  0.00D+00 EMaxC= 1.00D-01 BMatC= 6.74D-12 BMatP= 5.85D-10
 IDIUse=1 WtCom= 1.00D+00 WtEn= 0.00D+00
 Coeff-Com: -0.721D-02 0.573D-01 0.131D+00 0.184D+00 0.635D+00
 Coeff:     -0.721D-02 0.573D-01 0.131D+00 0.184D+00 0.635D+00
 Gap=     0.233 Goal=   None    Shift=    0.000
 RMSDP=4.18D-08 MaxDP=4.35D-07 DE=-5.04D-10 OVMax= 6.97D-07

 Cycle  12  Pass 1  IDiag  1:
 E= -212.578935255103     Delta-E=       -0.000000000006 Rises=F Damp=F
 DIIS: error= 6.79D-08 at cycle   6 NSaved=   6.
 NSaved= 6 IEnMin= 6 EnMin= -212.578935255103     IErMin= 6 ErrMin= 6.79D-08
 ErrMax= 6.79D-08  0.00D+00 EMaxC= 1.00D-01 BMatC= 3.86D-13 BMatP= 6.74D-12
 IDIUse=1 WtCom= 1.00D+00 WtEn= 0.00D+00
 Coeff-Com: -0.241D-02 0.162D-01 0.369D-01 0.581D-01 0.268D+00 0.624D+00
 Coeff:     -0.241D-02 0.162D-01 0.369D-01 0.581D-01 0.268D+00 0.624D+00
 Gap=     0.233 Goal=   None    Shift=    0.000
 RMSDP=6.84D-09 MaxDP=1.34D-07 DE=-5.80D-12 OVMax= 1.32D-07

 SCF Done:  E(RB3LYP) =  -212.578935255     A.U. after   12 cycles
            NFock= 12  Conv=0.68D-08     -V/T= 2.0097
 KE= 2.105267210939D+02 PE=-8.461492901021D+02 EE= 2.461204864282D+02
 Leave Link  502 at Tue Feb  7 16:46:17 2017, MaxMem=  1048576000 cpu:        19.0
 (Enter /mnt/data/applications/G09/g09/l701.exe)
 Compute integral first derivatives.
 ... and contract with generalized density number  0.
 Leave Link  701 at Tue Feb  7 16:46:17 2017, MaxMem=  1048576000 cpu:         1.1
 (Enter /mnt/data/applications/G09/g09/l702.exe)
 L702 exits ... SP integral derivatives will be done elsewhere.
 Leave Link  702 at Tue Feb  7 16:46:17 2017, MaxMem=  1048576000 cpu:         0.2
 (Enter /mnt/data/applications/G09/g09/l703.exe)
 Compute integral first derivatives, UseDBF=F ICtDFT=           0.
 Integral derivatives from FoFJK, PRISM(SPDF).
 Calling FoFJK, ICntrl=      2127 FMM=F ISym2X=0 I1Cent= 0 IOpClX= 0 NMat=1 NMatS=1 NMatT=0.
 FoFJK:  IHMeth= 1 ICntrl=    2127 DoSepK=F KAlg= 0 I1Cent=   0 FoldK=F
 IRaf=         0 NMat=   1 IRICut=       1 DoRegI=T DoRafI=F ISym2E= 0.
 FoFCou: FMM=F IPFlag=           0 FMFlag=      100000 FMFlg1=         800
         NFxFlg=           0 DoJE=F BraDBF=F KetDBF=F FulRan=T
         wScrn=  0.000000 ICntrl=    2127 IOpCl=  0 I1Cent=           0 NGrid=           0
         NMat0=    1 NMatS0=      1 NMatT0=    0 NMatD0=    1 NMtDS0=    0 NMtDT0=    0
 Symmetry not used in FoFCou.
 Leave Link  703 at Tue Feb  7 16:46:18 2017, MaxMem=  1048576000 cpu:         6.4
 (Enter /mnt/data/applications/G09/g09/l716.exe)
 Dipole        =-6.58051629D-01-9.83366406D-02-1.72408946D-02
 Cartesian Forces:  Max     0.028743213 RMS     0.006227551
 Leave Link  716 at Tue Feb  7 16:46:18 2017, MaxMem=  1048576000 cpu:         0.2
 (Enter /mnt/data/applications/G09/g09/l120.exe)
 SvSCFP is copying densities from files   528 and   530 to   603.
 ONIOM: saving gridpoint  2
 ONIOM: restoring gridpoint  1
 ONIOM: restoring gridpoint  1 on chk file.
 ONIOM: generating point  1 -- low level on model system.
 Leave Link  120 at Tue Feb  7 16:46:18 2017, MaxMem=  1048576000 cpu:         0.2
 (Enter /mnt/data/applications/G09/g09/l301.exe)
 Standard basis: STO-3G (5D, 7F)
 Ernie: Thresh=  0.10000D-02 Tol=  0.10000D-05 Strict=F.
    34 basis functions,   102 primitive gaussians,    34 cartesian basis functions
    20 alpha electrons       20 beta electrons
       nuclear repulsion energy       176.9231473249 Hartrees.
 IExCor=    0 DFT=F Ex=HF Corr=None ExCW=0 ScaHFX=  1.000000
 ScaDFX=  1.000000  1.000000  1.000000  1.000000 ScalE2=  1.000000  1.000000
 IRadAn=      0 IRanWt=     -1 IRanGd=            0 ICorTp=0 IEmpDi=  4
 NAtoms=   14 NActive=   14 NUniq=   14 SFac= 1.00D+00 NAtFMM=   60 NAOKFM=F Big=F
 Integral buffers will be    131072 words long.
 Raffenetti 1 integral format.
 Two-electron integral symmetry is turned off.
 Leave Link  301 at Tue Feb  7 16:46:18 2017, MaxMem=  1048576000 cpu:         0.3
 (Enter /mnt/data/applications/G09/g09/l402.exe)
 External calculation of energy and first derivatives.
 Running external command "./sictwo_files/sictwo_g09d01 M"
         input file       "/scratch/Gau-11639.EIn"
         output file      "/scratch/Gau-11639.EOu"
         message file     "/scratch/Gau-11639.EMs"
         fchk file        "/scratch/Gau-11639.EFC"
         mat. el file     "/scratch/Gau-11639.EUF"

---------------------------- SICTWO Version 1.0 STARTED -----------------------------

MM calculations started
MM calculations finished ....
Information recovery

---------------------------- SICTWO Version 1.0 FINISHED -----------------------------

 Recovered energy= 0.281778935219E-01 dipole=     -0.915905838504     -0.395790925058     -0.056653969392
 Energy=    2.817789352E-02 NIter=   0.
 Dipole moment=      -0.915906      -0.395791      -0.056654
 Leave Link  402 at Tue Feb  7 16:46:20 2017, MaxMem=  1048576000 cpu:        15.7
 (Enter /mnt/data/applications/G09/g09/l716.exe)
 Dipole        =-9.15905839D-01-3.95790925D-01-5.66539694D-02
 Cartesian Forces:  Max     0.034428865 RMS     0.008588236
 Leave Link  716 at Tue Feb  7 16:46:21 2017, MaxMem=  1048576000 cpu:         0.2
 (Enter /mnt/data/applications/G09/g09/l120.exe)
 SvSCFP did not find density file   528.
 ONIOM: saving gridpoint  1
 ONIOM: restoring gridpoint  3
 ONIOM: calculating energy.
 ONIOM: gridpoint  1 method:  low   system:  model energy:     0.028177893522
 ONIOM: gridpoint  2 method:  high  system:  model energy:  -212.578935255103
 ONIOM: gridpoint  3 method:  low   system:  real  energy:     0.028177893522
 ONIOM: extrapolated energy =    -212.578935255103
 ONIOM: calculating first derivatives.
 ONIOM: calculating electric field derivatives.
 ONIOM: Integrating ONIOM file  4 number   619
 ONIOM: Dipole        =-6.58051629D-01-9.83366406D-02-1.72408946D-02
 ONIOM: Dipole moment (Debye):
    X=    -1.6726    Y=    -0.2499    Z=    -0.0438  Tot=     1.6917
 ONIOM: Integrating ONIOM file  5 number   695
 Leave Link  120 at Tue Feb  7 16:46:21 2017, MaxMem=  1048576000 cpu:         0.0
 (Enter /mnt/data/applications/G09/g09/l716.exe)
 Dipole        =-6.58051629D-01-9.83366406D-02-1.72408946D-02
 -------------------------------------------------------------------
 Center     Atomic                   Forces (Hartrees/Bohr)
 Number     Number              X              Y              Z
 -------------------------------------------------------------------
      1        6          -0.019504795    0.000421984    0.000346122
      2        6           0.010271201   -0.004824287    0.000475512
      3        1          -0.002391310    0.001788231   -0.001289138
      4        1          -0.000504710   -0.000306789   -0.000137885
      5        1          -0.002796852    0.001881804    0.000993899
      6        6          -0.002923635    0.007106799    0.000429748
      7        1          -0.000516729   -0.003234087    0.000429125
      8        1          -0.000429050   -0.002975757   -0.001083553
      9        7           0.028743213    0.001497180   -0.000278938
     10        6          -0.007118788   -0.009457605   -0.001490751
     11        1          -0.001991439    0.002903212   -0.001003259
     12        1          -0.002020741    0.002544246    0.001969354
     13        1          -0.000393701    0.003592773    0.000602646
     14        1           0.001577336   -0.000937705    0.000037118
 -------------------------------------------------------------------
 Cartesian Forces:  Max     0.028743213 RMS     0.006227551
 Leave Link  716 at Tue Feb  7 16:46:21 2017, MaxMem=  1048576000 cpu:         0.2
 (Enter /mnt/data/applications/G09/g09/l103.exe)

 GradGradGradGradGradGradGradGradGradGradGradGradGradGradGradGradGradGrad
 Berny optimization.
 Using GEDIIS/GDIIS optimizer.
 FormGI is forming the generalized inverse of G from B-inverse, IUseBI=4.
 Internal  Forces:  Max     0.032137000 RMS     0.005060587
 Search for a local minimum.
 Step number   2 out of a maximum of   62
 All quantities printed in internal units (Hartrees-Bohrs-Radians)
 RMS Force = .50606D-02 SwitMx=.10000D-02 MixMth= 1
 Mixed Optimization -- RFO/linear search
 Update second derivatives using D2CorX and points    1    2
 DE= -1.93D-02 DEPred=-1.65D-02 R= 1.17D+00
 TightC=F SS=  1.41D+00  RLast= 3.01D-01 DXNew= 5.0454D-01 9.0447D-01
 Trust test= 1.17D+00 RLast= 3.01D-01 DXMaxT set to 5.05D-01
 ITU=  1  0
 Use linear search instead of GDIIS.
     Eigenvalues ---    0.00237   0.00237   0.00669   0.00766   0.03099
     Eigenvalues ---    0.06863   0.07159   0.07215   0.07220   0.09808
     Eigenvalues ---    0.10172   0.14384   0.16000   0.16000   0.16000
     Eigenvalues ---    0.16000   0.16000   0.16000   0.16000   0.16419
     Eigenvalues ---    0.18194   0.25000   0.25396   0.28469   0.28836
     Eigenvalues ---    0.35966   0.37189   0.37230   0.37230   0.37230
     Eigenvalues ---    0.37230   0.37230   0.37230   0.37230   0.39792
     Eigenvalues ---    0.77619
 RFO step:  Lambda=-4.19606757D-03 EMin= 2.36812746D-03
 Quartic linear search produced a step of  0.28946.
 Iteration  1 RMS(Cart)=  0.09950252 RMS(Int)=  0.00435238
 Iteration  2 RMS(Cart)=  0.00985325 RMS(Int)=  0.00009954
 Iteration  3 RMS(Cart)=  0.00003657 RMS(Int)=  0.00009789
 Iteration  4 RMS(Cart)=  0.00000000 RMS(Int)=  0.00009789
 ITry= 1 IFail=0 DXMaxC= 2.89D-01 DCOld= 1.00D+10 DXMaxT= 5.05D-01 DXLimC= 3.00D+00 Rises=F
 Variable       Old X    -DE/DX   Delta X   Delta X   Delta X     New X
                                 (Linear)    (Quad)   (Total)
    R1        2.90487  -0.00460  -0.00154  -0.01918  -0.02071   2.88416
    R2        2.86076  -0.00098  -0.01430   0.00747  -0.00684   2.85392
    R3        2.38400   0.01060  -0.01753   0.03092   0.01340   2.39740
    R4        2.06587   0.00269   0.01270  -0.00037   0.01233   2.07820
    R5        2.06578   0.00048   0.01267  -0.00790   0.00477   2.07055
    R6        2.06395   0.00263   0.01214  -0.00015   0.01199   2.07594
    R7        2.06786   0.00243   0.01327  -0.00171   0.01156   2.07942
    R8        2.06778   0.00231   0.01325  -0.00208   0.01117   2.07895
    R9        2.05870   0.00142   0.01062  -0.00314   0.00748   2.06619
   R10        2.72818   0.00323  -0.01439   0.02248   0.00809   2.73627
   R11        2.07215   0.00282   0.01452  -0.00131   0.01321   2.08536
   R12        2.07221   0.00294   0.01453  -0.00090   0.01363   2.08584
   R13        2.06094   0.00183   0.01127  -0.00225   0.00902   2.06995
    A1        2.05679  -0.00397  -0.01031  -0.01112  -0.02143   2.03536
    A2        2.15573   0.00213   0.01833  -0.00511   0.01322   2.16894
    A3        2.07066   0.00183  -0.00802   0.01623   0.00821   2.07887
    A4        1.91217   0.00166   0.00045   0.01180   0.01215   1.92433
    A5        1.95954  -0.00018   0.01416  -0.01618  -0.00213   1.95741
    A6        1.91204   0.00256   0.00041   0.02016   0.02044   1.93248
    A7        1.89078  -0.00082  -0.00575  -0.00123  -0.00705   1.88373
    A8        1.89178  -0.00249  -0.00546  -0.01400  -0.01956   1.87222
    A9        1.89622  -0.00089  -0.00417  -0.00104  -0.00534   1.89088
   A10        1.91900   0.00183   0.00242   0.01049   0.01284   1.93184
   A11        1.92174   0.00199   0.00322   0.01122   0.01435   1.93609
   A12        1.90331   0.00117  -0.00212   0.01364   0.01140   1.91471
   A13        1.88956  -0.00275  -0.00610  -0.01943  -0.02555   1.86400
   A14        1.91391  -0.00118   0.00095  -0.00844  -0.00760   1.90632
   A15        1.91632  -0.00109   0.00165  -0.00778  -0.00626   1.91006
   A16        2.22111  -0.03214  -0.06435  -0.10669  -0.17103   2.05008
   A17        1.94806   0.00204   0.01083   0.00364   0.01422   1.96227
[...]
 Two-electron integral symmetry is turned off.
 Leave Link  301 at Tue Feb  7 16:48:38 2017, MaxMem=  1048576000 cpu:         0.3
 (Enter /mnt/data/applications/G09/g09/l402.exe)
 External calculation of energy and first derivatives.
 Running external command "./sictwo_files/sictwo_g09d01 M"
         input file       "/scratch/Gau-11639.EIn"
         output file      "/scratch/Gau-11639.EOu"
         message file     "/scratch/Gau-11639.EMs"
         fchk file        "/scratch/Gau-11639.EFC"
         mat. el file     "/scratch/Gau-11639.EUF"

---------------------------- SICTWO Version 1.0 STARTED -----------------------------

MM calculations started
MM calculations finished ....
Information recovery

---------------------------- SICTWO Version 1.0 FINISHED -----------------------------

 Recovered energy= 0.251041559131E-01 dipole=     -1.036688953805     -0.393036912657     -0.055080248020
 Energy=    2.510415591E-02 NIter=   0.
 Dipole moment=      -1.036689      -0.393037      -0.055080
 Leave Link  402 at Tue Feb  7 16:48:40 2017, MaxMem=  1048576000 cpu:        15.8
 (Enter /mnt/data/applications/G09/g09/l716.exe)
 Dipole        =-1.03668895D+00-3.93036913D-01-5.50802480D-02
 Cartesian Forces:  Max     0.017089498 RMS     0.005181678
 Leave Link  716 at Tue Feb  7 16:48:40 2017, MaxMem=  1048576000 cpu:         0.2
 (Enter /mnt/data/applications/G09/g09/l120.exe)
 SvSCFP did not find density file   528.
 ONIOM: saving gridpoint  1
 ONIOM: restoring gridpoint  3
 ONIOM: calculating energy.
 ONIOM: gridpoint  1 method:  low   system:  model energy:     0.025104155913
 ONIOM: gridpoint  2 method:  high  system:  model energy:  -212.582288407004
 ONIOM: gridpoint  3 method:  low   system:  real  energy:     0.025104155913
 ONIOM: extrapolated energy =    -212.582288407004
 ONIOM: calculating first derivatives.
 ONIOM: calculating electric field derivatives.
 ONIOM: Integrating ONIOM file  4 number   619
 ONIOM: Dipole        =-7.57745120D-01-1.52650816D-01-1.74318027D-02
 ONIOM: Dipole moment (Debye):
    X=    -1.9260    Y=    -0.3880    Z=    -0.0443  Tot=     1.9652
 ONIOM: Integrating ONIOM file  5 number   695
 Leave Link  120 at Tue Feb  7 16:48:40 2017, MaxMem=  1048576000 cpu:         0.0
 (Enter /mnt/data/applications/G09/g09/l716.exe)
 Dipole        =-7.57745120D-01-1.52650816D-01-1.74318027D-02
 -------------------------------------------------------------------
 Center     Atomic                   Forces (Hartrees/Bohr)
 Number     Number              X              Y              Z
 -------------------------------------------------------------------
      1        6           0.000051321    0.000010812   -0.000000072
      2        6          -0.000066342    0.000034886    0.000002260
      3        1           0.000008706   -0.000016755   -0.000007586
      4        1          -0.000016062   -0.000016991   -0.000002102
      5        1           0.000017690   -0.000010315    0.000017976
      6        6          -0.000015815   -0.000026835    0.000010835
      7        1          -0.000001833    0.000001607   -0.000007021
      8        1          -0.000003183   -0.000001396   -0.000006282
      9        7           0.000049061   -0.000062476    0.000005286
     10        6          -0.000048336    0.000080582   -0.000010242
     11        1           0.000007087   -0.000004880    0.000006347
     12        1           0.000008023   -0.000006926   -0.000001128
     13        1          -0.000002231   -0.000004689   -0.000002195
     14        1           0.000011913    0.000023376   -0.000006076
 -------------------------------------------------------------------
 Cartesian Forces:  Max     0.000080582 RMS     0.000025604
 Leave Link  716 at Tue Feb  7 16:48:40 2017, MaxMem=  1048576000 cpu:         0.3
 (Enter /mnt/data/applications/G09/g09/l103.exe)

 GradGradGradGradGradGradGradGradGradGradGradGradGradGradGradGradGradGrad
 Berny optimization.
 Using GEDIIS/GDIIS optimizer.
 FormGI is forming the generalized inverse of G from B-inverse, IUseBI=4.
 Internal  Forces:  Max     0.000070948 RMS     0.000015875
 Search for a local minimum.
 Step number  15 out of a maximum of   62
 All quantities printed in internal units (Hartrees-Bohrs-Radians)
 RMS Force = .15875D-04 SwitMx=.10000D-02 MixMth= 2
 Mixed Optimization -- En-DIIS/RFO-DIIS
 Swapping is turned off.
 Update second derivatives using D2CorX and points    1    2    3    4    5
                                                      6    7    8    9   10
                                                     11   12   13   14   15
 DE= -2.41D-07 DEPred=-7.94D-08 R= 3.03D+00
 Trust test= 3.03D+00 RLast= 3.18D-02 DXMaxT set to 6.26D-01
 ITU=  0  0  0  0  0  0  1  1  1  0  1  1  1  1  0
     Eigenvalues ---    0.00025   0.00077   0.00292   0.02074   0.04777
     Eigenvalues ---    0.06467   0.06954   0.07032   0.07620   0.09737
     Eigenvalues ---    0.09832   0.13426   0.14712   0.15477   0.16012
     Eigenvalues ---    0.16150   0.16275   0.16553   0.17159   0.17368
     Eigenvalues ---    0.20956   0.23326   0.27683   0.29097   0.32973
     Eigenvalues ---    0.36075   0.37024   0.37202   0.37232   0.37269
     Eigenvalues ---    0.37313   0.37336   0.37406   0.37876   0.45244
     Eigenvalues ---    0.77388
 En-DIIS/RFO-DIIS IScMMF=        0 using points:    15   14   13   12   11
 RFO step:  Lambda=-2.13679823D-08.
 NNeg= 0 NP= 5 Switch=  2.50D-03 Rises=F DC=  7.17D-08 SmlDif=  1.00D-05
 RMS Error=  0.3146739057D-04 NUsed= 5 EDIIS=F
 DidBck=F Rises=F RFO-DIIS coefs:    1.54308   -1.22660    0.71435    0.10932   -0.14015
 Iteration  1 RMS(Cart)=  0.00020213 RMS(Int)=  0.00000012
 Iteration  2 RMS(Cart)=  0.00000003 RMS(Int)=  0.00000012
 ITry= 1 IFail=0 DXMaxC= 4.91D-04 DCOld= 1.00D+10 DXMaxT= 6.26D-01 DXLimC= 3.00D+00 Rises=F
 Variable       Old X    -DE/DX   Delta X   Delta X   Delta X     New X
                                 (Linear)    (Quad)   (Total)
    R1        2.87238   0.00006   0.00019   0.00001   0.00020   2.87258
    R2        2.85245   0.00000   0.00001   0.00000   0.00001   2.85246
    R3        2.41291   0.00001   0.00000   0.00001   0.00001   2.41291
    R4        2.07478   0.00000  -0.00003   0.00000  -0.00003   2.07475
    R5        2.06620   0.00002   0.00004   0.00002   0.00006   2.06626
    R6        2.07374   0.00000   0.00000   0.00000  -0.00001   2.07373
    R7        2.07605   0.00000  -0.00003   0.00000  -0.00002   2.07603
    R8        2.07598   0.00001   0.00000   0.00001   0.00001   2.07599
    R9        2.06331   0.00001   0.00002   0.00001   0.00003   2.06334
   R10        2.75486   0.00007   0.00019   0.00005   0.00024   2.75510
   R11        2.07987  -0.00001  -0.00005   0.00000  -0.00005   2.07981
   R12        2.07985   0.00000  -0.00003   0.00000  -0.00002   2.07982
   R13        2.06711   0.00000  -0.00003   0.00001  -0.00002   2.06709
    A1        2.03494   0.00000   0.00006  -0.00003   0.00003   2.03497
    A2        2.18328   0.00000  -0.00005   0.00005   0.00000   2.18328
    A3        2.06497   0.00000  -0.00001  -0.00002  -0.00003   2.06494
    A4        1.93473  -0.00001  -0.00006   0.00000  -0.00006   1.93467
    A5        1.95273   0.00001   0.00006  -0.00004   0.00002   1.95275
    A6        1.93655  -0.00002  -0.00015   0.00001  -0.00014   1.93640
    A7        1.88575  -0.00001  -0.00005  -0.00001  -0.00007   1.88568
    A8        1.86147   0.00003   0.00021   0.00005   0.00026   1.86174
    A9        1.88929   0.00000   0.00001  -0.00001   0.00000   1.88929
   A10        1.93309   0.00001   0.00005   0.00003   0.00008   1.93317
   A11        1.93297   0.00000   0.00000  -0.00002  -0.00002   1.93295
   A12        1.92161  -0.00003  -0.00021   0.00000  -0.00021   1.92140
   A13        1.86140   0.00000   0.00004  -0.00002   0.00003   1.86142
   A14        1.90659   0.00002   0.00009   0.00003   0.00012   1.90671
   A15        1.90704   0.00001   0.00003  -0.00002   0.00001   1.90705
   A16        2.07202  -0.00002   0.00000  -0.00010  -0.00010   2.07191
   A17        1.96964   0.00000  -0.00007   0.00004  -0.00004   1.96960
   A18        1.95080  -0.00001  -0.00002  -0.00005  -0.00007   1.95073
   A19        1.90451   0.00000  -0.00004  -0.00002  -0.00006   1.90444
   A20        1.87078   0.00001   0.00008   0.00002   0.00010   1.87089
   A21        1.88483   0.00000   0.00003   0.00002   0.00005   1.88488
   A22        1.88007   0.00000   0.00004  -0.00001   0.00003   1.88010
    D1       -2.06665   0.00001   0.00074  -0.00037   0.00037  -2.06627
    D2        0.03958   0.00000   0.00067  -0.00041   0.00026   0.03984
    D3        2.15159   0.00000   0.00062  -0.00044   0.00018   2.15176
    D4        1.07468   0.00000   0.00073  -0.00039   0.00034   1.07502
    D5       -3.10228   0.00000   0.00065  -0.00043   0.00022  -3.10205
    D6       -0.99027  -0.00001   0.00060  -0.00046   0.00014  -0.99013
    D7       -1.03886   0.00000   0.00035  -0.00013   0.00022  -1.03864
    D8        1.02268   0.00000   0.00044  -0.00015   0.00029   1.02296
    D9        3.13375   0.00000   0.00034  -0.00019   0.00015   3.13390
   D10        2.10298   0.00000   0.00036  -0.00011   0.00025   2.10323
   D11       -2.11867   0.00000   0.00045  -0.00013   0.00032  -2.11835
   D12       -0.00760   0.00000   0.00035  -0.00017   0.00018  -0.00742
   D13        0.00187  -0.00001  -0.00019  -0.00001  -0.00019   0.00168
   D14       -3.13999  -0.00001  -0.00020  -0.00003  -0.00023  -3.14022
   D15       -0.95415   0.00000  -0.00063   0.00071   0.00007  -0.95408
   D16        1.15606   0.00000  -0.00060   0.00073   0.00013   1.15619
   D17       -3.04956   0.00000  -0.00059   0.00067   0.00008  -3.04948
         Item               Value     Threshold  Converged?
 Maximum Force            0.000071     0.000450     YES
 RMS     Force            0.000016     0.000300     YES
 Maximum Displacement     0.000491     0.001800     YES
 RMS     Displacement     0.000202     0.001200     YES
 Predicted change in Energy=-1.633663D-08
 Optimization completed.
    -- Stationary point found.
                           ----------------------------
                           !   Optimized Parameters   !
                           ! (Angstroms and Degrees)  !
 --------------------------                            --------------------------
 ! Name  Definition              Value          Derivative Info.                !
 --------------------------------------------------------------------------------
 ! R1    R(1,2)                  1.52           -DE/DX =    0.0001              !
 ! R2    R(1,6)                  1.5095         -DE/DX =    0.0                 !
 ! R3    R(1,9)                  1.2769         -DE/DX =    0.0                 !
 ! R4    R(2,3)                  1.0979         -DE/DX =    0.0                 !
 ! R5    R(2,4)                  1.0934         -DE/DX =    0.0                 !
 ! R6    R(2,5)                  1.0974         -DE/DX =    0.0                 !
 ! R7    R(6,7)                  1.0986         -DE/DX =    0.0                 !
 ! R8    R(6,8)                  1.0986         -DE/DX =    0.0                 !
 ! R9    R(6,14)                 1.0919         -DE/DX =    0.0                 !
 ! R10   R(9,10)                 1.4578         -DE/DX =    0.0001              !
 ! R11   R(10,11)                1.1006         -DE/DX =    0.0                 !
 ! R12   R(10,12)                1.1006         -DE/DX =    0.0                 !
 ! R13   R(10,13)                1.0939         -DE/DX =    0.0                 !
 ! A1    A(2,1,6)              116.5935         -DE/DX =    0.0                 !
 ! A2    A(2,1,9)              125.0925         -DE/DX =    0.0                 !
 ! A3    A(6,1,9)              118.3141         -DE/DX =    0.0                 !
 ! A4    A(1,2,3)              110.8516         -DE/DX =    0.0                 !
 ! A5    A(1,2,4)              111.8834         -DE/DX =    0.0                 !
 ! A6    A(1,2,5)              110.956          -DE/DX =    0.0                 !
 ! A7    A(3,2,4)              108.0453         -DE/DX =    0.0                 !
 ! A8    A(3,2,5)              106.6546         -DE/DX =    0.0                 !
 ! A9    A(4,2,5)              108.2481         -DE/DX =    0.0                 !
 ! A10   A(1,6,7)              110.7577         -DE/DX =    0.0                 !
 ! A11   A(1,6,8)              110.751          -DE/DX =    0.0                 !
 ! A12   A(1,6,14)             110.1003         -DE/DX =    0.0                 !
 ! A13   A(7,6,8)              106.6501         -DE/DX =    0.0                 !
 ! A14   A(7,6,14)             109.2393         -DE/DX =    0.0                 !
 ! A15   A(8,6,14)             109.2654         -DE/DX =    0.0                 !
 ! A16   A(1,9,10)             118.7178         -DE/DX =    0.0                 !
 ! A17   A(9,10,11)            112.8519         -DE/DX =    0.0                 !
 ! A18   A(9,10,12)            111.7725         -DE/DX =    0.0                 !
 ! A19   A(9,10,13)            109.1202         -DE/DX =    0.0                 !
 ! A20   A(11,10,12)           107.188          -DE/DX =    0.0                 !
 ! A21   A(11,10,13)           107.9929         -DE/DX =    0.0                 !
 ! A22   A(12,10,13)           107.7202         -DE/DX =    0.0                 !
 ! D1    D(6,1,2,3)           -118.4102         -DE/DX =    0.0                 !
 ! D2    D(6,1,2,4)              2.2676         -DE/DX =    0.0                 !
 ! D3    D(6,1,2,5)            123.2769         -DE/DX =    0.0                 !
 ! D4    D(9,1,2,3)             61.5748         -DE/DX =    0.0                 !
 ! D5    D(9,1,2,4)           -177.7474         -DE/DX =    0.0                 !
 ! D6    D(9,1,2,5)            -56.7381         -DE/DX =    0.0                 !
 ! D7    D(2,1,6,7)            -59.5221         -DE/DX =    0.0                 !
 ! D8    D(2,1,6,8)             58.5952         -DE/DX =    0.0                 !
 ! D9    D(2,1,6,14)           179.5507         -DE/DX =    0.0                 !
 ! D10   D(9,1,6,7)            120.4918         -DE/DX =    0.0                 !
 ! D11   D(9,1,6,8)           -121.3909         -DE/DX =    0.0                 !
 ! D12   D(9,1,6,14)            -0.4354         -DE/DX =    0.0                 !
 ! D13   D(2,1,9,10)             0.107          -DE/DX =    0.0                 !
 ! D14   D(6,1,9,10)          -179.9082         -DE/DX =    0.0                 !
 ! D15   D(1,9,10,11)          -54.6687         -DE/DX =    0.0                 !
 ! D16   D(1,9,10,12)           66.2375         -DE/DX =    0.0                 !
 ! D17   D(1,9,10,13)         -174.7269         -DE/DX =    0.0                 !
 --------------------------------------------------------------------------------
 Lowest energy point so far.  Saving SCF results.
 GradGradGradGradGradGradGradGradGradGradGradGradGradGradGradGradGradGrad

 Largest change from initial coordinates is atom   11       0.114 Angstoms.
 Leave Link  103 at Tue Feb  7 16:48:41 2017, MaxMem=  1048576000 cpu:         0.1
 (Enter /mnt/data/applications/G09/g09/l202.exe)
                          Input orientation:                          
 ---------------------------------------------------------------------
 Center     Atomic      Atomic             Coordinates (Angstroms)
 Number     Number       Type             X           Y           Z
 ---------------------------------------------------------------------
      1          6    10061002       -2.249971    0.449198    0.012004
      2          6    10061003       -3.768863    0.506693    0.019298
      3          1    10011000       -4.140279    1.130858   -0.804052
      4          1    10011000       -4.214767   -0.486599   -0.080899
      5          1    10011000       -4.140086    0.957891    0.948194
      6          6    10061003       -1.626205   -0.911846   -0.180162
      7          1    10011000       -1.940265   -1.600075    0.616473
      8          1    10011000       -1.952343   -1.359002   -1.129122
      9          7    10071002       -1.476612    1.455172    0.154443
     10          6    10061003       -2.069667    2.773533    0.342655
     11          1    10011000       -2.780140    3.040366   -0.454458
     12          1    10011000       -2.611085    2.844984    1.298218
     13          1    10011000       -1.275379    3.525558    0.352989
     14          1    10011000       -0.537461   -0.829603   -0.176049
 ---------------------------------------------------------------------
                    Distance matrix (angstroms):
                    1          2          3          4          5
     1  C    0.000000
     2  C    1.519998   0.000000
     3  H    2.168842   1.097924   0.000000
     4  H    2.178249   1.093389   1.773321   0.000000
     5  H    2.169737   1.097375   1.760762   1.775150   0.000000
     6  C    1.509454   2.577406   3.298855   2.625136   3.329970
     7  H    2.158893   2.852869   3.783643   2.626693   3.390050
     8  H    2.158782   2.845951   3.330486   2.641670   3.803874
     9  N    1.276855   2.484410   2.849389   3.365019   2.823371
    10  C    2.354649   2.851384   2.881102   3.925469   2.819551
    11  H    2.685669   2.760709   2.370319   3.825857   2.855449
    12  H    2.743089   2.905802   3.113872   3.946289   2.453871
    13  H    3.245011   3.929676   3.909090   4.992561   3.892780
    14  H    2.145550   3.502258   4.149469   3.694494   4.175879
                    6          7          8          9         10
     6  C    0.000000
     7  H    1.098600   0.000000
     8  H    1.098563   1.762205   0.000000
     9  N    2.395227   3.124577   3.129447   0.000000
    10  C    3.748601   4.384081   4.388364   1.457811   0.000000
    11  H    4.126352   4.835905   4.527125   2.140744   1.100618
    12  H    4.155642   4.546793   4.898920   2.127634   1.100609
    13  H    4.483066   5.175289   5.149161   2.089597   1.093866
    14  H    1.091854   1.785939   1.786198   2.492274   3.949595
                   11         12         13         14
    11  H    0.000000
    12  H    1.771617   0.000000
    13  H    1.775299   1.772216   0.000000
    14  H    4.481493   4.469449   4.448802   0.000000
 Symmetry turned off by external request.
 Stoichiometry    C4H9N
 Framework group  C1[X(C4H9N)]
 Deg. of freedom    36
 Full point group                 C1      NOp   1
 Rotational constants (GHZ):      8.2380188      3.9174081      2.7930809
 Leave Link  202 at Tue Feb  7 16:48:41 2017, MaxMem=  1048576000 cpu:         0.0
 (Enter /mnt/data/applications/G09/g09/l9999.exe)
 1\1\GINC-KIMIK2115\FOpt\ONIOM(B3LYP/6-31G(d):External='./sictwo_files/
 sictwo_g09d01')\Mixed\C4H9N1\IFUNES\07-Feb-2017\0\\#p opt=nomicro onio
 m(B3LYP/6-31G*:external="./sictwo_files/sictwo_g09d01") geom=connectiv
 ity nosymm scf(maxcyc=100)\\ONIOM(QM:MM) OPT FREQ with SICTWO V1.0\\0,
 1\C,-2.2499707014,0.4491976394,0.0120041614\C,-3.7688631952,0.50669339
 46,0.0192980923\H,-4.1402788751,1.1308582034,-0.8040521757\H,-4.214766
 6049,-0.4865987576,-0.0808989832\H,-4.1400863882,0.9578905762,0.948193
 744\C,-1.6262049814,-0.9118458171,-0.1801621673\H,-1.9402649038,-1.600
 0751201,0.6164734652\H,-1.952342554,-1.3590019367,-1.1291223971\N,-1.4
 766117688,1.4551722066,0.1544431783\C,-2.069667189,2.7735329419,0.3426
 549519\H,-2.7801400031,3.0403656924,-0.4544578879\H,-2.6110852205,2.84
 49835448,1.2982180571\H,-1.2753793017,3.5255583139,0.3529889933\H,-0.5
 374605329,-0.8296031315,-0.1760494322\\Version=EM64L-G09RevD.01\HF=0.0
 251042\RMSD=4.602e-09\RMSF=2.560e-05\Dipole=-0.7577451,-0.1526508,-0.0
 174318\PG=C01 [X(C4H9N1)]\\@


 I LOVE THOSE WHO LONG FOR THE IMPOSSIBLE.

                                 -- GOETHE
 Job cpu time:       0 days  0 hours 18 minutes 15.7 seconds.
 File lengths (MBytes):  RWF=      7 Int=      0 D2E=      0 Chk=      3 Scr=      1
 Normal termination of Gaussian 09 at Tue Feb  7 16:48:41 2017.
