 Entering Gaussian System, Link 0=g09
 Initial command:
 /mnt/data/applications/G09/g09/l1.exe "/scratch/Gau-11695.inp" -scrdir="/scratch/"
 Entering Link 1 = /mnt/data/applications/G09/g09/l1.exe PID=     11696.
  
 Copyright (c) 1988,1990,1992,1993,1995,1998,2003,2009,2013,
            Gaussian, Inc.  All Rights Reserved.
  
 This is part of the Gaussian(R) 09 program.  It is based on
 the Gaussian(R) 03 system (copyright 2003, Gaussian, Inc.),
 the Gaussian(R) 98 system (copyright 1998, Gaussian, Inc.),
 the Gaussian(R) 94 system (copyright 1995, Gaussian, Inc.),
 the Gaussian 92(TM) system (copyright 1992, Gaussian, Inc.),
 the Gaussian 90(TM) system (copyright 1990, Gaussian, Inc.),
 the Gaussian 88(TM) system (copyright 1988, Gaussian, Inc.),
 the Gaussian 86(TM) system (copyright 1986, Carnegie Mellon
 University), and the Gaussian 82(TM) system (copyright 1983,
 Carnegie Mellon University). Gaussian is a federally registered
 trademark of Gaussian, Inc.
  
 This software contains proprietary and confidential information,
 including trade secrets, belonging to Gaussian, Inc.
  
 This software is provided under written license and may be
 used, copied, transmitted, or stored only in accord with that
 written license.
  
 The following legend is applicable only to US Government
 contracts under FAR:
  
                    RESTRICTED RIGHTS LEGEND
  
 Use, reproduction and disclosure by the US Government is
 subject to restrictions as set forth in subparagraphs (a)
 and (c) of the Commercial Computer Software - Restricted
 Rights clause in FAR 52.227-19.
  
 Gaussian, Inc.
 340 Quinnipiac St., Bldg. 40, Wallingford CT 06492
  
  
 ---------------------------------------------------------------
 Warning -- This program may not be used in any manner that
 competes with the business of Gaussian, Inc. or will provide
 assistance to any competitor of Gaussian, Inc.  The licensee
 of this program is prohibited from giving any competitor of
 Gaussian, Inc. access to this program.  By using this program,
 the user acknowledges that Gaussian, Inc. is engaged in the
 business of creating and licensing software in the field of
 computational chemistry and represents and warrants to the
 licensee that it is not a competitor of Gaussian, Inc. and that
 it will not use this program in any manner prohibited above.
 ---------------------------------------------------------------
  

 Cite this work as:
 Gaussian 09, Revision D.01,
 M. J. Frisch, G. W. Trucks, H. B. Schlegel, G. E. Scuseria, 
 M. A. Robb, J. R. Cheeseman, G. Scalmani, V. Barone, B. Mennucci, 
 G. A. Petersson, H. Nakatsuji, M. Caricato, X. Li, H. P. Hratchian, 
 A. F. Izmaylov, J. Bloino, G. Zheng, J. L. Sonnenberg, M. Hada, 
 M. Ehara, K. Toyota, R. Fukuda, J. Hasegawa, M. Ishida, T. Nakajima, 
 Y. Honda, O. Kitao, H. Nakai, T. Vreven, J. A. Montgomery, Jr., 
 J. E. Peralta, F. Ogliaro, M. Bearpark, J. J. Heyd, E. Brothers, 
 K. N. Kudin, V. N. Staroverov, T. Keith, R. Kobayashi, J. Normand, 
 K. Raghavachari, A. Rendell, J. C. Burant, S. S. Iyengar, J. Tomasi, 
 M. Cossi, N. Rega, J. M. Millam, M. Klene, J. E. Knox, J. B. Cross, 
 V. Bakken, C. Adamo, J. Jaramillo, R. Gomperts, R. E. Stratmann, 
 O. Yazyev, A. J. Austin, R. Cammi, C. Pomelli, J. W. Ochterski, 
 R. L. Martin, K. Morokuma, V. G. Zakrzewski, G. A. Voth, 
 P. Salvador, J. J. Dannenberg, S. Dapprich, A. D. Daniels, 
 O. Farkas, J. B. Foresman, J. V. Ortiz, J. Cioslowski, 
 and D. J. Fox, Gaussian, Inc., Wallingford CT, 2013.
 
 ******************************************
 Gaussian 09:  EM64L-G09RevD.01 24-Apr-2013
                 7-Feb-2017 
 ******************************************
 %nprocshared=8
 Will use up to    8 processors via shared memory.
 %mem=8000MB
 %chk=I_2
 ----------------------------------------------------------------------
 #p opt=nomicro oniom(B3LYP/6-31G*:external="./sictwo_files/sictwo_g09d
 01") geom=connectivity nosymm scf(maxcyc=100)
 ----------------------------------------------------------------------
 1/14=-1,18=20,19=15,26=1,38=1,52=2,57=2/1,3;
 2/9=110,12=2,15=1,17=6,18=5,40=1/2;
 1/14=-1,18=20,19=15,26=1,38=1,52=2,53=3172/20;
 3/11=9,16=1,25=1,30=1,41=9900000,43=2,71=1/1;
 4/20=17,22=1,23=100,24=3,113=1,114=1/2;
 6/7=2,8=2,9=2,10=2/1;
 7/7=1,30=1,33=-1,44=-1/16;
 1/14=-1,18=20,19=15,26=1,52=2,53=2032/20;
 3/5=1,6=6,7=1,11=2,16=1,25=1,30=1,71=1,74=-5/1,2,3;
 4//1;
 5/5=2,7=100,38=5/2;
 6/7=2,8=2,9=2,10=2,28=1/1;
 7/7=1,30=1,33=-1/1,2,3,16;
 1/14=-1,18=20,19=15,26=1,52=2,53=1022/20;
 3/11=9,16=1,25=1,30=1,41=9900000,43=2,71=1/1;
 4/20=17,22=1,23=100,24=3,113=1,114=2/2;
 6/7=2,8=2,9=2,10=2/1;
 7/7=1,30=1,33=-1,44=-1/16;
 1/14=-1,18=20,19=15,26=1,52=2,53=3015/20;
 7/9=1,44=-1/16;
 1/14=-1,18=20,19=15,26=1,52=2/3(2);
 2/9=110,15=1/2;
 99//99;
 2/9=110,15=1/2;
 1/14=-1,18=20,19=15,26=1,52=2,53=3173/20;
 3/11=9,16=1,25=1,30=1,41=9900000,43=2,71=1/1;
 4/16=2,20=17,22=1,23=100,24=3,113=1,114=1/2;
 7/7=1,30=1,33=-1,44=-1/16;
 1/14=-1,18=20,19=15,26=1,52=2,53=2033/20;
 3/5=1,6=6,7=1,11=2,16=1,25=1,30=1,71=1,74=-5/1,2,3;
 4/5=5,16=3,69=1/1;
 5/5=2,7=100,38=5/2;
 7/7=1,30=1,33=-1/1,2,3,16;
 1/14=-1,18=20,19=15,26=1,52=2,53=1023/20;
 3/11=9,16=1,25=1,30=1,41=9900000,43=2,71=1/1;
 4/16=2,20=17,22=1,23=100,24=3,113=1,114=2/2;
 7/7=1,30=1,33=-1,44=-1/16;
 1/14=-1,18=20,19=15,26=1,52=2,53=3015/20;
 7/9=1,44=-1/16;
 1/14=-1,18=20,19=15,26=1,52=2/3(-16);
 2/9=110,15=1/2;
 99//99;
 Leave Link    1 at Tue Feb  7 16:46:42 2017, MaxMem=  1048576000 cpu:         0.8
 (Enter /mnt/data/applications/G09/g09/l101.exe)
 --------------------------------------
 ONIOM(QM:MM) OPT FREQ with SICTWO V1.0
 --------------------------------------
 Symbolic Z-matrix:
 Charge =  0 Multiplicity = 1 for low   level calculation on real  system.
 Charge =  0 Multiplicity = 1 for high  level calculation on model system.
 Charge =  0 Multiplicity = 1 for low   level calculation on model system.
 C-C_2                0    -2.36842   0.38462   0.       H 
 C-C_3                0    -3.90842   0.38462   0.       H 
 H-H_                 0    -4.26509   0.88902  -0.87365  H 
 H-H_                 0    -4.26509  -0.62419   0.       H 
 H-H_                 0    -4.26509   0.88902   0.87365  H 
 C-C_3                0    -1.60106  -0.93573  -0.19863  H 
 H-H_                 0    -1.80801  -1.59492   0.61841  H 
 H-H_                 0    -1.91129  -1.39428  -1.11426  H 
 C-C_3                0    -0.08937  -0.64736  -0.25533  L    H-H_     6     0.        0. 
 N-N_2                0    -1.72384   1.49371   0.16685  H 
 C-C_3                0    -1.98204   2.92475   0.38212  H 
 H-H_                 0    -2.55823   3.30981  -0.43313  H 
 H-H_                 0    -2.52407   3.05596   1.2953   H 
 H-H_                 0    -1.05176   3.45013   0.4409   H 
 H-H_                 0     0.22537  -0.21071   0.66942  L 
 H-H_                 0     0.11454   0.03067  -1.05758  L 
 H-H_                 0     0.44232  -1.56169  -0.41725  L 
 
 NAtoms=     17 NQM=       17 NQMF=       0 NMMI=      0 NMMIF=      0
                NMic=       0 NMicF=      0.
                    Isotopes and Nuclear Properties:
 (Nuclear quadrupole moments (NQMom) in fm**2, nuclear magnetic moments (NMagM)
  in nuclear magnetons)

  Atom         1           2           3           4           5           6           7           8           9          10
 IAtWgt=          12          12           1           1           1          12           1           1          12          14
 AtmWgt=  12.0000000  12.0000000   1.0078250   1.0078250   1.0078250  12.0000000   1.0078250   1.0078250  12.0000000  14.0030740
 NucSpn=           0           0           1           1           1           0           1           1           0           2
 AtZEff=   0.0000000   0.0000000   0.0000000   0.0000000   0.0000000   0.0000000   0.0000000   0.0000000   0.0000000   0.0000000
 NQMom=    0.0000000   0.0000000   0.0000000   0.0000000   0.0000000   0.0000000   0.0000000   0.0000000   0.0000000   2.0440000
 NMagM=    0.0000000   0.0000000   2.7928460   2.7928460   2.7928460   0.0000000   2.7928460   2.7928460   0.0000000   0.4037610
 AtZNuc=   6.0000000   6.0000000   1.0000000   1.0000000   1.0000000   6.0000000   1.0000000   1.0000000   6.0000000   7.0000000

  Atom        11          12          13          14          15          16          17
 IAtWgt=          12           1           1           1           1           1           1
 AtmWgt=  12.0000000   1.0078250   1.0078250   1.0078250   1.0078250   1.0078250   1.0078250
 NucSpn=           0           1           1           1           1           1           1
 AtZEff=   0.0000000   0.0000000   0.0000000   0.0000000   0.0000000   0.0000000   0.0000000
 NQMom=    0.0000000   0.0000000   0.0000000   0.0000000   0.0000000   0.0000000   0.0000000
 NMagM=    0.0000000   2.7928460   2.7928460   2.7928460   2.7928460   2.7928460   2.7928460
 AtZNuc=   6.0000000   1.0000000   1.0000000   1.0000000   1.0000000   1.0000000   1.0000000
 Leave Link  101 at Tue Feb  7 16:46:42 2017, MaxMem=  1048576000 cpu:         3.0
 (Enter /mnt/data/applications/G09/g09/l103.exe)

 GradGradGradGradGradGradGradGradGradGradGradGradGradGradGradGradGradGrad
 Berny optimization.
 Initialization pass.
                           ----------------------------
                           !    Initial Parameters    !
                           ! (Angstroms and Degrees)  !
 --------------------------                            --------------------------
 ! Name  Definition              Value          Derivative Info.                !
 --------------------------------------------------------------------------------
 ! R1    R(1,2)                  1.54           estimate D2E/DX2                !
 ! R2    R(1,6)                  1.54           estimate D2E/DX2                !
 ! R3    R(1,10)                 1.2936         estimate D2E/DX2                !
 ! R4    R(2,3)                  1.07           estimate D2E/DX2                !
 ! R5    R(2,4)                  1.07           estimate D2E/DX2                !
 ! R6    R(2,5)                  1.07           estimate D2E/DX2                !
 ! R7    R(6,7)                  1.07           estimate D2E/DX2                !
 ! R8    R(6,8)                  1.07           estimate D2E/DX2                !
 ! R9    R(6,9)                  1.54           estimate D2E/DX2                !
 ! R10   R(9,15)                 1.07           estimate D2E/DX2                !
 ! R11   R(9,16)                 1.07           estimate D2E/DX2                !
 ! R12   R(9,17)                 1.07           estimate D2E/DX2                !
 ! R13   R(10,11)                1.47           estimate D2E/DX2                !
 ! R14   R(11,12)                1.07           estimate D2E/DX2                !
 ! R15   R(11,13)                1.07           estimate D2E/DX2                !
 ! R16   R(11,14)                1.07           estimate D2E/DX2                !
 ! A1    A(2,1,6)              119.8865         estimate D2E/DX2                !
 ! A2    A(2,1,10)             119.8865         estimate D2E/DX2                !
 ! A3    A(6,1,10)             120.2269         estimate D2E/DX2                !
 ! A4    A(1,2,3)              109.4712         estimate D2E/DX2                !
 ! A5    A(1,2,4)              109.4712         estimate D2E/DX2                !
 ! A6    A(1,2,5)              109.4712         estimate D2E/DX2                !
 ! A7    A(3,2,4)              109.4713         estimate D2E/DX2                !
 ! A8    A(3,2,5)              109.4712         estimate D2E/DX2                !
 ! A9    A(4,2,5)              109.4712         estimate D2E/DX2                !
 ! A10   A(1,6,7)              109.4712         estimate D2E/DX2                !
 ! A11   A(1,6,8)              109.4712         estimate D2E/DX2                !
 ! A12   A(1,6,9)              109.4712         estimate D2E/DX2                !
 ! A13   A(7,6,8)              109.4713         estimate D2E/DX2                !
 ! A14   A(7,6,9)              109.4712         estimate D2E/DX2                !
 ! A15   A(8,6,9)              109.4712         estimate D2E/DX2                !
 ! A16   A(6,9,15)             109.4712         estimate D2E/DX2                !
 ! A17   A(6,9,16)             109.4712         estimate D2E/DX2                !
 ! A18   A(6,9,17)             109.4712         estimate D2E/DX2                !
 ! A19   A(15,9,16)            109.4712         estimate D2E/DX2                !
 ! A20   A(15,9,17)            109.4712         estimate D2E/DX2                !
 ! A21   A(16,9,17)            109.4713         estimate D2E/DX2                !
 ! A22   A(1,10,11)            139.9974         estimate D2E/DX2                !
 ! A23   A(10,11,12)           109.4712         estimate D2E/DX2                !
 ! A24   A(10,11,13)           109.4712         estimate D2E/DX2                !
 ! A25   A(10,11,14)           109.4712         estimate D2E/DX2                !
 ! A26   A(12,11,13)           109.4713         estimate D2E/DX2                !
 ! A27   A(12,11,14)           109.4712         estimate D2E/DX2                !
 ! A28   A(13,11,14)           109.4712         estimate D2E/DX2                !
 ! D1    D(6,1,2,3)           -111.4449         estimate D2E/DX2                !
 ! D2    D(6,1,2,4)              8.5551         estimate D2E/DX2                !
 ! D3    D(6,1,2,5)            128.5551         estimate D2E/DX2                !
 ! D4    D(10,1,2,3)            68.5551         estimate D2E/DX2                !
 ! D5    D(10,1,2,4)          -171.4449         estimate D2E/DX2                !
 ! D6    D(10,1,2,5)           -51.4449         estimate D2E/DX2                !
 ! D7    D(2,1,6,7)            -63.9088         estimate D2E/DX2                !
 ! D8    D(2,1,6,8)             56.0912         estimate D2E/DX2                !
 ! D9    D(2,1,6,9)            176.0912         estimate D2E/DX2                !
 ! D10   D(10,1,6,7)           116.0912         estimate D2E/DX2                !
 ! D11   D(10,1,6,8)          -123.9088         estimate D2E/DX2                !
 ! D12   D(10,1,6,9)            -3.9088         estimate D2E/DX2                !
 ! D13   D(2,1,10,11)            0.0            estimate D2E/DX2                !
 ! D14   D(6,1,10,11)          180.0            estimate D2E/DX2                !
 ! D15   D(1,6,9,15)            61.3716         estimate D2E/DX2                !
 ! D16   D(1,6,9,16)           -58.6284         estimate D2E/DX2                !
 ! D17   D(1,6,9,17)          -178.6284         estimate D2E/DX2                !
 ! D18   D(7,6,9,15)           -58.6284         estimate D2E/DX2                !
 ! D19   D(7,6,9,16)          -178.6284         estimate D2E/DX2                !
 ! D20   D(7,6,9,17)            61.3716         estimate D2E/DX2                !
 ! D21   D(8,6,9,15)          -178.6284         estimate D2E/DX2                !
 ! D22   D(8,6,9,16)            61.3716         estimate D2E/DX2                !
 ! D23   D(8,6,9,17)           -58.6285         estimate D2E/DX2                !
 ! D24   D(1,10,11,12)         -58.8621         estimate D2E/DX2                !
 ! D25   D(1,10,11,13)          61.1379         estimate D2E/DX2                !
 ! D26   D(1,10,11,14)        -178.8621         estimate D2E/DX2                !
 --------------------------------------------------------------------------------
 Trust Radius=3.00D-01 FncErr=1.00D-07 GrdErr=1.00D-07
 Number of steps in this run=     80 maximum allowed number of steps=    102.
 GradGradGradGradGradGradGradGradGradGradGradGradGradGradGradGradGradGrad

 Leave Link  103 at Tue Feb  7 16:46:43 2017, MaxMem=  1048576000 cpu:         0.1
 (Enter /mnt/data/applications/G09/g09/l202.exe)
                          Input orientation:                          
 ---------------------------------------------------------------------
 Center     Atomic      Atomic             Coordinates (Angstroms)
 Number     Number       Type             X           Y           Z
 ---------------------------------------------------------------------
      1          6    10061002       -2.368421    0.384615    0.000000
      2          6    10061003       -3.908421    0.384615    0.000000
      3          1    10011000       -4.265087    0.889018   -0.873651
      4          1    10011000       -4.265087   -0.624190    0.000000
      5          1    10011000       -4.265088    0.889018    0.873651
      6          6    10061003       -1.601064   -0.935730   -0.198625
      7          1    10011000       -1.808014   -1.594917    0.618408
      8          1    10011000       -1.911285   -1.394283   -1.114263
      9          6    10061003       -0.089366   -0.647364   -0.255334
     10          7    10071002       -1.723841    1.493705    0.166845
     11          6    10061003       -1.982036    2.924750    0.382123
     12          1    10011000       -2.558226    3.309809   -0.433128
     13          1    10011000       -2.524066    3.055958    1.295299
     14          1    10011000       -1.051756    3.450130    0.440899
     15          1    10011000        0.225375   -0.210711    0.669421
     16          1    10011000        0.114544    0.030668   -1.057576
     17          1    10011000        0.442317   -1.561692   -0.417249
 ---------------------------------------------------------------------
                    Distance matrix (angstroms):
                    1          2          3          4          5
     1  C    0.000000
     2  C    1.540000   0.000000
     3  H    2.148263   1.070000   0.000000
     4  H    2.148263   1.070000   1.747303   0.000000
     5  H    2.148263   1.070000   1.747303   1.747303   0.000000
     6  C    1.540000   2.665832   3.298846   2.689522   3.402426
     7  H    2.148263   2.951726   3.799129   2.713291   3.503183
     8  H    2.148263   2.897346   3.288121   2.715697   3.834795
     9  C    2.514810   3.964260   4.492152   4.183584   4.590395
    10  N    1.293600   2.455668   2.811799   3.312288   2.706133
    11  C    2.597614   3.210804   3.306584   4.237136   3.098085
    12  H    2.963171   3.250751   2.994606   4.310142   3.237480
    13  H    2.972893   3.275715   3.525780   4.272288   2.811507
    14  H    3.365320   4.213349   4.314259   5.207684   4.131836
    15  H    2.744142   4.229752   4.873882   4.558875   4.627674
    16  H    2.721922   4.174685   4.466740   4.552854   4.862878
    17  H    3.444192   4.784468   5.326720   4.817952   5.461874
                    6          7          8          9         10
     6  C    0.000000
     7  H    1.070000   0.000000
     8  H    1.070000   1.747303   0.000000
     9  C    1.540000   2.148263   2.148263   0.000000
    10  N    2.459837   3.122592   3.164940   2.726522   0.000000
    11  C    3.922463   4.529184   4.571457   4.092500   1.470000
    12  H    4.358411   5.071970   4.796973   4.667558   2.086720
    13  H    4.360884   4.754108   5.097659   4.695404   2.086720
    14  H    4.466150   5.104501   5.160005   4.266191   2.086720
    15  H    2.148263   2.460345   3.024514   1.070000   2.637623
    16  H    2.148263   3.024514   2.477434   1.070000   2.649404
    17  H    2.148263   2.477435   2.460345   1.070000   3.790628
                   11         12         13         14         15
    11  C    0.000000
    12  H    1.070000   0.000000
    13  H    1.070000   1.747303   0.000000
    14  H    1.070000   1.747303   1.747303   0.000000
    15  H    3.845298   4.621483   4.315352   3.883946   0.000000
    16  H    3.852803   4.276259   4.653026   3.911317   1.747303
    17  H    5.161846   5.721454   5.749342   5.299720   1.747303
                   16         17
    16  H    0.000000
    17  H    1.747303   0.000000
 Symmetry turned off by external request.
 Stoichiometry    C5H11N
 Framework group  C1[X(C5H11N)]
 Deg. of freedom    45
 Full point group                 C1      NOp   1
 Rotational constants (GHZ):      4.5475576      2.6336904      1.7390042
 Leave Link  202 at Tue Feb  7 16:46:43 2017, MaxMem=  1048576000 cpu:         0.0
 (Enter /mnt/data/applications/G09/g09/l120.exe)
 ONIOM: Cut between C /H     9 and C     6 factor= 0.723886 0.723886
 ONIOM: saving gridpoint 17
 ONIOM: generating point  3 -- low level on real system.
 Leave Link  120 at Tue Feb  7 16:46:43 2017, MaxMem=  1048576000 cpu:         0.0
 (Enter /mnt/data/applications/G09/g09/l301.exe)
 Standard basis: STO-3G (5D, 7F)
 Ernie: Thresh=  0.10000D-02 Tol=  0.10000D-05 Strict=F.
    41 basis functions,   123 primitive gaussians,    41 cartesian basis functions
    24 alpha electrons       24 beta electrons
       nuclear repulsion energy       239.0601306543 Hartrees.
 IExCor=    0 DFT=F Ex=HF Corr=None ExCW=0 ScaHFX=  1.000000
 ScaDFX=  1.000000  1.000000  1.000000  1.000000 ScalE2=  1.000000  1.000000
 IRadAn=      0 IRanWt=     -1 IRanGd=            0 ICorTp=0 IEmpDi=  4
 NAtoms=   17 NActive=   17 NUniq=   17 SFac= 1.00D+00 NAtFMM=   60 NAOKFM=F Big=F
 Integral buffers will be    131072 words long.
 Raffenetti 1 integral format.
 Two-electron integral symmetry is turned off.
 Leave Link  301 at Tue Feb  7 16:46:43 2017, MaxMem=  1048576000 cpu:         0.5
 (Enter /mnt/data/applications/G09/g09/l402.exe)
 External calculation of energy and first derivatives.
 Running external command "./sictwo_files/sictwo_g09d01 R"
         input file       "/scratch/Gau-11696.EIn"
         output file      "/scratch/Gau-11696.EOu"
         message file     "/scratch/Gau-11696.EMs"
         fchk file        "/scratch/Gau-11696.EFC"
         mat. el file     "/scratch/Gau-11696.EUF"

---------------------------- SICTWO Version 1.0 STARTED -----------------------------

MM calculations started
MM calculations finished ....
Information recovery

---------------------------- SICTWO Version 1.0 FINISHED -----------------------------

 Recovered energy= 0.451398638457E-01 dipole=     -0.757353410275     -0.430019364899     -0.064522576252
 Energy=    4.513986385E-02 NIter=   0.
 Dipole moment=      -0.757353      -0.430019      -0.064523
 Leave Link  402 at Tue Feb  7 16:46:46 2017, MaxMem=  1048576000 cpu:        22.4
 (Enter /mnt/data/applications/G09/g09/l601.exe)
 Leave Link  601 at Tue Feb  7 16:46:46 2017, MaxMem=  1048576000 cpu:         0.2
 (Enter /mnt/data/applications/G09/g09/l716.exe)
 Dipole        =-7.57353410D-01-4.30019365D-01-6.45225763D-02
 Cartesian Forces:  Max     0.045400243 RMS     0.014112000
 Leave Link  716 at Tue Feb  7 16:46:46 2017, MaxMem=  1048576000 cpu:         0.2
 (Enter /mnt/data/applications/G09/g09/l120.exe)
 SvSCFP did not find density file   528.
 ONIOM: saving gridpoint  3
 ONIOM: restoring gridpoint 17
 ONIOM: generating point  2 -- high level on model system.
 Leave Link  120 at Tue Feb  7 16:46:46 2017, MaxMem=  1048576000 cpu:         0.0
 (Enter /mnt/data/applications/G09/g09/l301.exe)
 Standard basis: 6-31G(d) (6D, 7F)
 Ernie: Thresh=  0.10000D-02 Tol=  0.10000D-05 Strict=F.
    93 basis functions,   176 primitive gaussians,    93 cartesian basis functions
    20 alpha electrons       20 beta electrons
       nuclear repulsion energy       174.1253855048 Hartrees.
 IExCor=  402 DFT=T Ex+Corr=B3LYP ExCW=0 ScaHFX=  0.200000
 ScaDFX=  0.800000  0.720000  1.000000  0.810000 ScalE2=  1.000000  1.000000
 IRadAn=      0 IRanWt=     -1 IRanGd=            0 ICorTp=0 IEmpDi=  4
 NAtoms=   17 NActive=   14 NUniq=   14 SFac= 1.00D+00 NAtFMM=   60 NAOKFM=F Big=F
 Integral buffers will be    131072 words long.
 Raffenetti 2 integral format.
 Two-electron integral symmetry is turned off.
 Leave Link  301 at Tue Feb  7 16:46:47 2017, MaxMem=  1048576000 cpu:         0.5
 (Enter /mnt/data/applications/G09/g09/l302.exe)
 NPDir=0 NMtPBC=     1 NCelOv=     1 NCel=       1 NClECP=     1 NCelD=      1
         NCelK=      1 NCelE2=     1 NClLst=     1 CellRange=     0.0.
 One-electron integrals computed using PRISM.
 NBasis=    93 RedAO= T EigKep=  3.94D-03  NBF=    93
 NBsUse=    93 1.00D-06 EigRej= -1.00D+00 NBFU=    93
 Precomputing XC quadrature grid using
 IXCGrd= 4 IRadAn=           0 IRanWt=          -1 IRanGd=           0 AccXCQ= 0.00D+00.
 Generated NRdTot=       0 NPtTot=           0 NUsed=           0 NTot=          32
 NSgBfM=    93    93    93    93    93 MxSgAt=    14 MxSgA2=    14.
 Leave Link  302 at Tue Feb  7 16:46:47 2017, MaxMem=  1048576000 cpu:         1.5
 (Enter /mnt/data/applications/G09/g09/l303.exe)
 DipDrv:  MaxL=1.
 Leave Link  303 at Tue Feb  7 16:46:47 2017, MaxMem=  1048576000 cpu:         0.2
 (Enter /mnt/data/applications/G09/g09/l401.exe)
 ExpMin= 1.61D-01 ExpMax= 4.17D+03 ExpMxC= 6.27D+02 IAcc=1 IRadAn=         1 AccDes= 0.00D+00
 Harris functional with IExCor=  402 and IRadAn=       1 diagonalized for initial guess.
 HarFok:  IExCor=  402 AccDes= 0.00D+00 IRadAn=         1 IDoV= 1 UseB2=F ITyADJ=14
 ICtDFT=  3500011 ScaDFX=  1.000000  1.000000  1.000000  1.000000
 FoFCou: FMM=F IPFlag=           0 FMFlag=      100000 FMFlg1=           0
         NFxFlg=           0 DoJE=T BraDBF=F KetDBF=T FulRan=T
         wScrn=  0.000000 ICntrl=     500 IOpCl=  0 I1Cent=   200000004 NGrid=           0
         NMat0=    1 NMatS0=      1 NMatT0=    0 NMatD0=    1 NMtDS0=    0 NMtDT0=    0
 Symmetry not used in FoFCou.
 Harris En= -212.616254200406    
 JPrj=0 DoOrth=F DoCkMO=F.
 Leave Link  401 at Tue Feb  7 16:46:47 2017, MaxMem=  1048576000 cpu:         1.8
 (Enter /mnt/data/applications/G09/g09/l502.exe)
 Closed shell SCF:
 Using DIIS extrapolation, IDIIS=  1040.
 Two-electron integral symmetry not used.
 Keep R1 ints in memory in canonical form, NReq=10509617.
 IVT=       39309 IEndB=       39309 NGot=  1048576000 MDV=  1038981686
 LenX=  1038981686 LenY=  1038972596
 Requested convergence on RMS density matrix=1.00D-08 within 100 cycles.
 Requested convergence on MAX density matrix=1.00D-06.
 Requested convergence on             energy=1.00D-06.
 No special actions if energy rises.
 FoFCou: FMM=F IPFlag=           0 FMFlag=           0 FMFlg1=           0
         NFxFlg=           0 DoJE=F BraDBF=F KetDBF=F FulRan=T
         wScrn=  0.000000 ICntrl=     600 IOpCl=  0 I1Cent=           0 NGrid=           0
         NMat0=    1 NMatS0=   4371 NMatT0=    0 NMatD0=    1 NMtDS0=    0 NMtDT0=    0
 Symmetry not used in FoFCou.
 Integral accuracy reduced to 1.0D-05 until final iterations.

 Cycle   1  Pass 0  IDiag  1:
 E= -212.368487241768    
 DIIS: error= 5.72D-02 at cycle   1 NSaved=   1.
 NSaved= 1 IEnMin= 1 EnMin= -212.368487241768     IErMin= 1 ErrMin= 5.72D-02
 ErrMax= 5.72D-02  0.00D+00 EMaxC= 1.00D-01 BMatC= 1.81D-01 BMatP= 1.81D-01
 IDIUse=3 WtCom= 4.28D-01 WtEn= 5.72D-01
 Coeff-Com:  0.100D+01
 Coeff-En:   0.100D+01
 Coeff:      0.100D+01
 Gap=     0.158 Goal=   None    Shift=    0.000
 GapD=    0.158 DampG=1.000 DampE=0.500 DampFc=0.5000 IDamp=-1.
 Damping current iteration by 5.00D-01
 RMSDP=1.04D-02 MaxDP=1.36D-01              OVMax= 1.91D-01

 Cycle   2  Pass 0  IDiag  1:
 E= -212.456429819704     Delta-E=       -0.087942577936 Rises=F Damp=T
 DIIS: error= 8.53D-03 at cycle   2 NSaved=   2.
 NSaved= 2 IEnMin= 2 EnMin= -212.456429819704     IErMin= 2 ErrMin= 8.53D-03
 ErrMax= 8.53D-03  0.00D+00 EMaxC= 1.00D-01 BMatC= 9.26D-03 BMatP= 1.81D-01
 IDIUse=3 WtCom= 9.15D-01 WtEn= 8.53D-02
 Coeff-Com:  0.600D-01 0.940D+00
 Coeff-En:   0.787D-01 0.921D+00
 Coeff:      0.616D-01 0.938D+00
 Gap=     0.215 Goal=   None    Shift=    0.000
 RMSDP=2.26D-03 MaxDP=4.03D-02 DE=-8.79D-02 OVMax= 1.62D-01

 Cycle   3  Pass 0  IDiag  1:
 E= -212.548240544524     Delta-E=       -0.091810724820 Rises=F Damp=F
 DIIS: error= 1.04D-02 at cycle   3 NSaved=   3.
 NSaved= 3 IEnMin= 3 EnMin= -212.548240544524     IErMin= 2 ErrMin= 8.53D-03
 ErrMax= 1.04D-02  0.00D+00 EMaxC= 1.00D-01 BMatC= 1.25D-02 BMatP= 9.26D-03
 IDIUse=2 WtCom= 0.00D+00 WtEn= 1.00D+00
 Coeff-En:   0.000D+00 0.000D+00 0.100D+01
 Coeff:      0.000D+00 0.000D+00 0.100D+01
 Gap=     0.176 Goal=   None    Shift=    0.000
 RMSDP=3.33D-03 MaxDP=8.53D-02 DE=-9.18D-02 OVMax= 1.71D-01

 Cycle   4  Pass 0  IDiag  1:
 E= -212.501718589462     Delta-E=        0.046521955062 Rises=F Damp=F
 DIIS: error= 2.63D-02 at cycle   4 NSaved=   4.
 NSaved= 4 IEnMin= 3 EnMin= -212.548240544524     IErMin= 2 ErrMin= 8.53D-03
 ErrMax= 2.63D-02  0.00D+00 EMaxC= 1.00D-01 BMatC= 6.38D-02 BMatP= 9.26D-03
 IDIUse=2 WtCom= 0.00D+00 WtEn= 1.00D+00
 Coeff-En:   0.000D+00 0.000D+00 0.780D+00 0.220D+00
 Coeff:      0.000D+00 0.000D+00 0.780D+00 0.220D+00
 Gap=     0.199 Goal=   None    Shift=    0.000
 RMSDP=1.77D-03 MaxDP=4.16D-02 DE= 4.65D-02 OVMax= 8.61D-02

 Cycle   5  Pass 0  IDiag  1:
 E= -212.555310366780     Delta-E=       -0.053591777317 Rises=F Damp=F
 DIIS: error= 6.80D-03 at cycle   5 NSaved=   5.
 NSaved= 5 IEnMin= 5 EnMin= -212.555310366780     IErMin= 5 ErrMin= 6.80D-03
 ErrMax= 6.80D-03  0.00D+00 EMaxC= 1.00D-01 BMatC= 4.79D-03 BMatP= 9.26D-03
 IDIUse=3 WtCom= 9.32D-01 WtEn= 6.80D-02
 Coeff-Com: -0.189D-02 0.117D-01 0.252D+00-0.131D+00 0.869D+00
 Coeff-En:   0.000D+00 0.000D+00 0.325D+00 0.000D+00 0.675D+00
 Coeff:     -0.176D-02 0.109D-01 0.257D+00-0.122D+00 0.856D+00
 Gap=     0.209 Goal=   None    Shift=    0.000
 RMSDP=6.22D-04 MaxDP=1.66D-02 DE=-5.36D-02 OVMax= 3.20D-02

 Cycle   6  Pass 0  IDiag  1:
 E= -212.559611480258     Delta-E=       -0.004301113478 Rises=F Damp=F
 DIIS: error= 9.65D-05 at cycle   6 NSaved=   6.
 NSaved= 6 IEnMin= 6 EnMin= -212.559611480258     IErMin= 6 ErrMin= 9.65D-05
 ErrMax= 9.65D-05  0.00D+00 EMaxC= 1.00D-01 BMatC= 1.68D-06 BMatP= 4.79D-03
 IDIUse=1 WtCom= 1.00D+00 WtEn= 0.00D+00
 Coeff-Com: -0.545D-03 0.143D-02 0.816D-01-0.444D-01 0.299D+00 0.663D+00
 Coeff:     -0.545D-03 0.143D-02 0.816D-01-0.444D-01 0.299D+00 0.663D+00
 Gap=     0.209 Goal=   None    Shift=    0.000
 RMSDP=1.50D-05 MaxDP=3.63D-04 DE=-4.30D-03 OVMax= 4.47D-04

 Cycle   7  Pass 0  IDiag  1:
 E= -212.559612678580     Delta-E=       -0.000001198322 Rises=F Damp=F
 DIIS: error= 3.93D-05 at cycle   7 NSaved=   7.
 NSaved= 7 IEnMin= 7 EnMin= -212.559612678580     IErMin= 7 ErrMin= 3.93D-05
 ErrMax= 3.93D-05  0.00D+00 EMaxC= 1.00D-01 BMatC= 2.12D-07 BMatP= 1.68D-06
 IDIUse=1 WtCom= 1.00D+00 WtEn= 0.00D+00
 Coeff-Com: -0.369D-04-0.194D-03 0.233D-01-0.122D-01 0.844D-01 0.338D+00
 Coeff-Com:  0.566D+00
 Coeff:     -0.369D-04-0.194D-03 0.233D-01-0.122D-01 0.844D-01 0.338D+00
 Coeff:      0.566D+00
 Gap=     0.209 Goal=   None    Shift=    0.000
 RMSDP=6.55D-06 MaxDP=7.84D-05 DE=-1.20D-06 OVMax= 1.10D-04

 Initial convergence to 1.0D-05 achieved.  Increase integral accuracy.
 Cycle   8  Pass 1  IDiag  1:
 E= -212.559594425569     Delta-E=        0.000018253011 Rises=F Damp=F
 DIIS: error= 8.99D-06 at cycle   1 NSaved=   1.
 NSaved= 1 IEnMin= 1 EnMin= -212.559594425569     IErMin= 1 ErrMin= 8.99D-06
 ErrMax= 8.99D-06  0.00D+00 EMaxC= 1.00D-01 BMatC= 1.74D-08 BMatP= 1.74D-08
 IDIUse=1 WtCom= 1.00D+00 WtEn= 0.00D+00
 Coeff-Com:  0.100D+01
 Coeff:      0.100D+01
 Gap=     0.209 Goal=   None    Shift=    0.000
 RMSDP=6.55D-06 MaxDP=7.84D-05 DE= 1.83D-05 OVMax= 1.04D-04

 Cycle   9  Pass 1  IDiag  1:
 E= -212.559594427596     Delta-E=       -0.000000002027 Rises=F Damp=F
 DIIS: error= 1.42D-05 at cycle   2 NSaved=   2.
 NSaved= 2 IEnMin= 2 EnMin= -212.559594427596     IErMin= 1 ErrMin= 8.99D-06
 ErrMax= 1.42D-05  0.00D+00 EMaxC= 1.00D-01 BMatC= 2.57D-08 BMatP= 1.74D-08
 IDIUse=1 WtCom= 1.00D+00 WtEn= 0.00D+00
 Coeff-Com:  0.563D+00 0.437D+00
 Coeff:      0.563D+00 0.437D+00
 Gap=     0.209 Goal=   None    Shift=    0.000
 RMSDP=1.94D-06 MaxDP=5.45D-05 DE=-2.03D-09 OVMax= 1.05D-04

 Cycle  10  Pass 1  IDiag  1:
 E= -212.559594447124     Delta-E=       -0.000000019529 Rises=F Damp=F
 DIIS: error= 6.60D-06 at cycle   3 NSaved=   3.
 NSaved= 3 IEnMin= 3 EnMin= -212.559594447124     IErMin= 3 ErrMin= 6.60D-06
 ErrMax= 6.60D-06  0.00D+00 EMaxC= 1.00D-01 BMatC= 4.35D-09 BMatP= 1.74D-08
 IDIUse=1 WtCom= 1.00D+00 WtEn= 0.00D+00
 Coeff-Com:  0.109D-01 0.287D+00 0.702D+00
 Coeff:      0.109D-01 0.287D+00 0.702D+00
 Gap=     0.209 Goal=   None    Shift=    0.000
 RMSDP=7.84D-07 MaxDP=1.63D-05 DE=-1.95D-08 OVMax= 3.12D-05

 Cycle  11  Pass 1  IDiag  1:
 E= -212.559594450839     Delta-E=       -0.000000003715 Rises=F Damp=F
 DIIS: error= 1.26D-06 at cycle   4 NSaved=   4.
 NSaved= 4 IEnMin= 4 EnMin= -212.559594450839     IErMin= 4 ErrMin= 1.26D-06
 ErrMax= 1.26D-06  0.00D+00 EMaxC= 1.00D-01 BMatC= 2.26D-10 BMatP= 4.35D-09
 IDIUse=1 WtCom= 1.00D+00 WtEn= 0.00D+00
 Coeff-Com: -0.167D-01 0.135D+00 0.372D+00 0.509D+00
 Coeff:     -0.167D-01 0.135D+00 0.372D+00 0.509D+00
 Gap=     0.209 Goal=   None    Shift=    0.000
 RMSDP=1.89D-07 MaxDP=2.83D-06 DE=-3.71D-09 OVMax= 3.20D-06

 Cycle  12  Pass 1  IDiag  1:
 E= -212.559594451053     Delta-E=       -0.000000000214 Rises=F Damp=F
 DIIS: error= 1.45D-07 at cycle   5 NSaved=   5.
 NSaved= 5 IEnMin= 5 EnMin= -212.559594451053     IErMin= 5 ErrMin= 1.45D-07
 ErrMax= 1.45D-07  0.00D+00 EMaxC= 1.00D-01 BMatC= 4.91D-12 BMatP= 2.26D-10
 IDIUse=1 WtCom= 1.00D+00 WtEn= 0.00D+00
 Coeff-Com: -0.669D-02 0.363D-01 0.100D+00 0.193D+00 0.677D+00
 Coeff:     -0.669D-02 0.363D-01 0.100D+00 0.193D+00 0.677D+00
 Gap=     0.209 Goal=   None    Shift=    0.000
 RMSDP=3.04D-08 MaxDP=5.13D-07 DE=-2.14D-10 OVMax= 6.32D-07

 Cycle  13  Pass 1  IDiag  1:
 E= -212.559594451057     Delta-E=       -0.000000000004 Rises=F Damp=F
 DIIS: error= 5.11D-08 at cycle   6 NSaved=   6.
 NSaved= 6 IEnMin= 6 EnMin= -212.559594451057     IErMin= 6 ErrMin= 5.11D-08
 ErrMax= 5.11D-08  0.00D+00 EMaxC= 1.00D-01 BMatC= 2.03D-13 BMatP= 4.91D-12
 IDIUse=1 WtCom= 1.00D+00 WtEn= 0.00D+00
 Coeff-Com: -0.117D-02 0.497D-02 0.108D-01 0.330D-01 0.186D+00 0.766D+00
 Coeff:     -0.117D-02 0.497D-02 0.108D-01 0.330D-01 0.186D+00 0.766D+00
 Gap=     0.209 Goal=   None    Shift=    0.000
 RMSDP=8.42D-09 MaxDP=9.22D-08 DE=-3.58D-12 OVMax= 1.71D-07

 SCF Done:  E(RB3LYP) =  -212.559594451     A.U. after   13 cycles
            NFock= 13  Conv=0.84D-08     -V/T= 2.0098
 KE= 2.104913847477D+02 PE=-8.405826382979D+02 EE= 2.434062735944D+02
 Leave Link  502 at Tue Feb  7 16:46:50 2017, MaxMem=  1048576000 cpu:        20.3
 (Enter /mnt/data/applications/G09/g09/l601.exe)
 Copying SCF densities to generalized density rwf, IOpCl= 0 IROHF=0.

 **********************************************************************

            Population analysis using the SCF density.

 **********************************************************************

 Alpha  occ. eigenvalues --  -14.29690 -10.23104 -10.19986 -10.17486 -10.17274
 Alpha  occ. eigenvalues --   -0.88137  -0.75455  -0.69739  -0.67441  -0.50958
 Alpha  occ. eigenvalues --   -0.45192  -0.44472  -0.43689  -0.41845  -0.40187
 Alpha  occ. eigenvalues --   -0.40129  -0.37884  -0.35599  -0.26333  -0.19337
 Alpha virt. eigenvalues --    0.01592   0.09701   0.13092   0.15242   0.15385
 Alpha virt. eigenvalues --    0.16241   0.17452   0.18335   0.18840   0.19599
 Alpha virt. eigenvalues --    0.22496   0.23694   0.29050   0.40892   0.46526
 Alpha virt. eigenvalues --    0.50515   0.53794   0.54893   0.57645   0.59248
 Alpha virt. eigenvalues --    0.60522   0.68270   0.70506   0.71235   0.74627
 Alpha virt. eigenvalues --    0.79011   0.82531   0.84052   0.85954   0.88212
 Alpha virt. eigenvalues --    0.91153   0.91840   0.92151   0.93348   0.95094
 Alpha virt. eigenvalues --    0.96684   0.97141   1.01236   1.11781   1.20493
 Alpha virt. eigenvalues --    1.35091   1.38484   1.39751   1.40991   1.52563
 Alpha virt. eigenvalues --    1.59377   1.73015   1.77828   1.81023   1.88499
 Alpha virt. eigenvalues --    1.88984   1.94333   2.02507   2.10352   2.11836
 Alpha virt. eigenvalues --    2.18935   2.19292   2.21188   2.28980   2.29283
 Alpha virt. eigenvalues --    2.34767   2.38535   2.46323   2.48798   2.62673
 Alpha virt. eigenvalues --    2.67213   2.89482   3.10842   3.91674   4.11228
 Alpha virt. eigenvalues --    4.26851   4.32523   4.47323
          Condensed to atoms (all electrons):
               1          2          3          4          5          6
     1  C    4.606981   0.326471  -0.023459  -0.022688  -0.023524   0.347434
     2  C    0.326471   5.287908   0.371158   0.347522   0.373739  -0.104367
     3  H   -0.023459   0.371158   0.537375  -0.028629  -0.026481   0.002578
     4  H   -0.022688   0.347522  -0.028629   0.576338  -0.029018   0.001220
     5  H   -0.023524   0.373739  -0.026481  -0.029018   0.538098   0.003126
     6  C    0.347434  -0.104367   0.002578   0.001220   0.003126   5.234272
     7  H   -0.027220   0.003048  -0.000062   0.000782   0.000006   0.360751
     8  H   -0.029763   0.004025   0.000270  -0.000197  -0.000008   0.360610
     9  H   -0.020411   0.006057  -0.000150  -0.000185  -0.000134   0.344953
    10  N    0.660098  -0.098650  -0.004246   0.006225  -0.006340  -0.065314
    11  C   -0.069133  -0.012645   0.001004   0.000221   0.001718   0.008186
    12  H   -0.001607   0.003819   0.001673  -0.000125  -0.000705  -0.000480
    13  H   -0.001423   0.003689  -0.000568  -0.000102   0.002453  -0.000474
    14  H    0.001586  -0.000411  -0.000004   0.000007  -0.000024   0.000138
               7          8          9         10         11         12
     1  C   -0.027220  -0.029763  -0.020411   0.660098  -0.069133  -0.001607
     2  C    0.003048   0.004025   0.006057  -0.098650  -0.012645   0.003819
     3  H   -0.000062   0.000270  -0.000150  -0.004246   0.001004   0.001673
     4  H    0.000782  -0.000197  -0.000185   0.006225   0.000221  -0.000125
     5  H    0.000006  -0.000008  -0.000134  -0.006340   0.001718  -0.000705
     6  C    0.360751   0.360610   0.344953  -0.065314   0.008186  -0.000480
     7  H    0.557833  -0.033216  -0.022088  -0.000193  -0.000192  -0.000005
     8  H   -0.033216   0.562818  -0.022571   0.000391  -0.000195   0.000038
     9  H   -0.022088  -0.022571   0.537037   0.009193  -0.000455   0.000056
    10  N   -0.000193   0.000391   0.009193   6.734230   0.288010  -0.032093
    11  C   -0.000192  -0.000195  -0.000455   0.288010   4.983773   0.350944
    12  H   -0.000005   0.000038   0.000056  -0.032093   0.350944   0.592942
    13  H    0.000043  -0.000004   0.000049  -0.031945   0.350288  -0.021915
    14  H   -0.000001  -0.000001  -0.000105  -0.052025   0.406522  -0.043314
              13         14
     1  C   -0.001423   0.001586
     2  C    0.003689  -0.000411
     3  H   -0.000568  -0.000004
     4  H   -0.000102   0.000007
     5  H    0.002453  -0.000024
     6  C   -0.000474   0.000138
     7  H    0.000043  -0.000001
     8  H   -0.000004  -0.000001
     9  H    0.000049  -0.000105
    10  N   -0.031945  -0.052025
    11  C    0.350288   0.406522
    12  H   -0.021915  -0.043314
    13  H    0.591542  -0.042895
    14  H   -0.042895   0.562173
 Mulliken charges:
               1
     1  C    0.276659
     2  C   -0.511361
     3  H    0.169542
     4  H    0.148630
     5  H    0.167093
     6  C   -0.492634
     7  H    0.160515
     8  H    0.157803
     9  H    0.168755
    10  N   -0.407342
    11  C   -0.308047
    12  H    0.150771
    13  H    0.151262
    14  H    0.168354
    15  H    0.000000
    16  H    0.000000
    17  H    0.000000
 Sum of Mulliken charges =   0.00000
 Mulliken charges with hydrogens summed into heavy atoms:
               1
     1  C    0.276659
     2  C   -0.026097
     6  C   -0.005561
    10  N   -0.407342
    11  C    0.162341
 Electronic spatial extent (au):  <R**2>=           1424.1672
 Charge=              0.0000 electrons
 Dipole moment (field-independent basis, Debye):
    X=             -1.4024    Y=             -0.0920    Z=             -0.0218  Tot=              1.4056
 Quadrupole moment (field-independent basis, Debye-Ang):
   XX=            -26.9129   YY=            -28.8848   ZZ=            -31.8104
   XY=             -1.4088   XZ=             -0.0694   YZ=              0.4497
 Traceless Quadrupole moment (field-independent basis, Debye-Ang):
   XX=              2.2898   YY=              0.3179   ZZ=             -2.6077
   XY=             -1.4088   XZ=             -0.0694   YZ=              0.4497
 Octapole moment (field-independent basis, Debye-Ang**2):
  XXX=            214.1222  YYY=            -68.7617  ZZZ=             -6.6137  XYY=             68.1944
  XXY=            -21.1598  XXZ=             -2.0595  XZZ=             73.7660  YZZ=            -26.5295
  YYZ=             -0.3725  XYZ=             -0.8148
 Hexadecapole moment (field-independent basis, Debye-Ang**3):
 XXXX=          -1268.7407 YYYY=           -535.2840 ZZZZ=            -59.6822 XXXY=            164.2429
 XXXZ=             14.3439 YYYX=            164.4333 YYYZ=            -30.8395 ZZZX=             14.0942
 ZZZY=            -33.2285 XXYY=           -291.1909 XXZZ=           -216.8692 YYZZ=           -101.6717
 XXYZ=             -9.9997 YYXZ=              2.4901 ZZXY=             57.4266
 N-N= 1.741253855048D+02 E-N=-8.405826344025D+02  KE= 2.104913847477D+02
 No NMR shielding tensors so no spin-rotation constants.
 Leave Link  601 at Tue Feb  7 16:46:50 2017, MaxMem=  1048576000 cpu:         1.2
 (Enter /mnt/data/applications/G09/g09/l701.exe)
 Compute integral first derivatives.
 ... and contract with generalized density number  0.
 Leave Link  701 at Tue Feb  7 16:46:50 2017, MaxMem=  1048576000 cpu:         1.2
 (Enter /mnt/data/applications/G09/g09/l702.exe)
 L702 exits ... SP integral derivatives will be done elsewhere.
 Leave Link  702 at Tue Feb  7 16:46:50 2017, MaxMem=  1048576000 cpu:         0.2
 (Enter /mnt/data/applications/G09/g09/l703.exe)
 Compute integral first derivatives, UseDBF=F ICtDFT=           0.
 Integral derivatives from FoFJK, PRISM(SPDF).
 Calling FoFJK, ICntrl=      2127 FMM=F ISym2X=0 I1Cent= 0 IOpClX= 0 NMat=1 NMatS=1 NMatT=0.
 FoFJK:  IHMeth= 1 ICntrl=    2127 DoSepK=F KAlg= 0 I1Cent=   0 FoldK=F
 IRaf=         0 NMat=   1 IRICut=       1 DoRegI=T DoRafI=F ISym2E= 0.
 FoFCou: FMM=F IPFlag=           0 FMFlag=      100000 FMFlg1=         800
         NFxFlg=           0 DoJE=F BraDBF=F KetDBF=F FulRan=T
         wScrn=  0.000000 ICntrl=    2127 IOpCl=  0 I1Cent=           0 NGrid=           0
         NMat0=    1 NMatS0=      1 NMatT0=    0 NMatD0=    1 NMtDS0=    0 NMtDT0=    0
 Symmetry not used in FoFCou.
 Leave Link  703 at Tue Feb  7 16:46:51 2017, MaxMem=  1048576000 cpu:         6.7
 (Enter /mnt/data/applications/G09/g09/l716.exe)
 Dipole        =-5.51756614D-01-3.61796336D-02-8.57789553D-03
 Cartesian Forces:  Max     0.056860090 RMS     0.016622715
 Leave Link  716 at Tue Feb  7 16:46:51 2017, MaxMem=  1048576000 cpu:         0.2
 (Enter /mnt/data/applications/G09/g09/l120.exe)
 SvSCFP is copying densities from files   528 and   530 to   603.
 ONIOM: saving gridpoint  2
 ONIOM: restoring gridpoint 17
 ONIOM: generating point  1 -- low level on model system.
 Leave Link  120 at Tue Feb  7 16:46:52 2017, MaxMem=  1048576000 cpu:         0.2
 (Enter /mnt/data/applications/G09/g09/l301.exe)
 Standard basis: STO-3G (5D, 7F)
 Ernie: Thresh=  0.10000D-02 Tol=  0.10000D-05 Strict=F.
    34 basis functions,   102 primitive gaussians,    34 cartesian basis functions
    20 alpha electrons       20 beta electrons
       nuclear repulsion energy       174.1253855048 Hartrees.
 IExCor=    0 DFT=F Ex=HF Corr=None ExCW=0 ScaHFX=  1.000000
 ScaDFX=  1.000000  1.000000  1.000000  1.000000 ScalE2=  1.000000  1.000000
 IRadAn=      0 IRanWt=     -1 IRanGd=            0 ICorTp=0 IEmpDi=  4
 NAtoms=   17 NActive=   14 NUniq=   14 SFac= 1.00D+00 NAtFMM=   60 NAOKFM=F Big=F
 Integral buffers will be    131072 words long.
 Raffenetti 1 integral format.
 Two-electron integral symmetry is turned off.
 Leave Link  301 at Tue Feb  7 16:46:52 2017, MaxMem=  1048576000 cpu:         0.4
 (Enter /mnt/data/applications/G09/g09/l402.exe)
 External calculation of energy and first derivatives.
 Running external command "./sictwo_files/sictwo_g09d01 M"
         input file       "/scratch/Gau-11696.EIn"
         output file      "/scratch/Gau-11696.EOu"
         message file     "/scratch/Gau-11696.EMs"
         fchk file        "/scratch/Gau-11696.EFC"
         mat. el file     "/scratch/Gau-11696.EUF"

---------------------------- SICTWO Version 1.0 STARTED -----------------------------

MM calculations started
MM calculations finished ....
Information recovery

---------------------------- SICTWO Version 1.0 FINISHED -----------------------------

 Recovered energy= 0.445679204468E-01 dipole=     -0.757353410275     -0.430019364899     -0.064522576252
 Energy=    4.456792045E-02 NIter=   0.
 Dipole moment=      -0.757353      -0.430019      -0.064523
 Leave Link  402 at Tue Feb  7 16:46:54 2017, MaxMem=  1048576000 cpu:        16.3
 (Enter /mnt/data/applications/G09/g09/l601.exe)
 Leave Link  601 at Tue Feb  7 16:46:54 2017, MaxMem=  1048576000 cpu:         0.2
 (Enter /mnt/data/applications/G09/g09/l716.exe)
 Dipole        =-7.57353410D-01-4.30019365D-01-6.45225763D-02
 Cartesian Forces:  Max     0.045356729 RMS     0.013415958
 Leave Link  716 at Tue Feb  7 16:46:54 2017, MaxMem=  1048576000 cpu:         0.2
 (Enter /mnt/data/applications/G09/g09/l120.exe)
 SvSCFP did not find density file   528.
 ONIOM: saving gridpoint  1
 ONIOM: restoring gridpoint  3
 ONIOM: calculating energy.
 ONIOM: gridpoint  1 method:  low   system:  model energy:     0.044567920447
 ONIOM: gridpoint  2 method:  high  system:  model energy:  -212.559594451057
 ONIOM: gridpoint  3 method:  low   system:  real  energy:     0.045139863846
 ONIOM: extrapolated energy =    -212.559022507658
 ONIOM: calculating first derivatives.
 ONIOM: calculating electric field derivatives.
 ONIOM: Integrating ONIOM file  4 number   619
 ONIOM: Dipole        =-5.51756614D-01-3.61796336D-02-8.57789553D-03
 ONIOM: Dipole moment (Debye):
    X=    -1.4024    Y=    -0.0920    Z=    -0.0218  Tot=     1.4056
 ONIOM: Integrating ONIOM file  5 number   695
 Nuclear Quadrupole Tensors: 
                 1             2             3             4             5 
      1   0.117961D+00 -0.361954D-01  0.111571D+00  0.108265D+00  0.111105D+00
      2  -0.189901D-01  0.152062D-02  0.791318D-01 -0.158249D+00  0.782784D-01
      3   0.159936D+00  0.264902D-01  0.566831D-01 -0.277676D+00  0.561327D-01
      4  -0.361587D-02  0.297359D-02 -0.137580D+00  0.287072D-03  0.137147D+00
      5   0.673007D-01  0.436964D-02  0.195019D+00 -0.470760D-03 -0.195083D+00
      6  -0.277898D+00  0.970526D-02 -0.168254D+00  0.169412D+00 -0.167238D+00
                 6             7             8             9            10 
      1  -0.942813D-03  0.148274D+00  0.124248D+00  0.000000D+00  0.120418D+01
      2   0.670557D-01 -0.579727D-01 -0.598643D-01  0.000000D+00 -0.185233D+00
      3  -0.201232D-01 -0.246464D-01  0.744960D-01  0.000000D+00 -0.554196D+00
      4   0.100974D-01  0.774193D-01 -0.126975D+00  0.000000D+00 -0.406640D-01
      5  -0.838513D-02  0.237925D+00 -0.186591D+00  0.000000D+00  0.180082D-01
      6   0.210660D-01 -0.123627D+00 -0.198744D+00  0.000000D+00 -0.649983D+00
                11            12            13            14            15 
      1   0.125070D+00  0.242499D-01  0.411712D-01 -0.208503D+00  0.000000D+00
      2   0.723527D-01  0.985035D-01  0.317354D-01 -0.209492D+00  0.000000D+00
      3  -0.225259D+00  0.958175D-01  0.153308D+00  0.406958D-01  0.000000D+00
      4   0.112952D-01 -0.207831D+00  0.219396D+00 -0.233458D-01  0.000000D+00
      5  -0.503906D-01  0.135879D+00 -0.539334D-01 -0.148299D-01  0.000000D+00
      6   0.100190D+00 -0.120067D+00 -0.194479D+00  0.167807D+00  0.000000D+00
                16            17 
      1   0.000000D+00  0.000000D+00
      2   0.000000D+00  0.000000D+00
      3   0.000000D+00  0.000000D+00
      4   0.000000D+00  0.000000D+00
      5   0.000000D+00  0.000000D+00
      6   0.000000D+00  0.000000D+00
 Saving ESP charges from gridpoint 2
 Leave Link  120 at Tue Feb  7 16:46:54 2017, MaxMem=  1048576000 cpu:         0.0
 (Enter /mnt/data/applications/G09/g09/l716.exe)
 Dipole        =-5.51756614D-01-3.61796336D-02-8.57789553D-03
 -------------------------------------------------------------------
 Center     Atomic                   Forces (Hartrees/Bohr)
 Number     Number              X              Y              Z
 -------------------------------------------------------------------
      1        6          -0.002894296    0.058036152    0.009074915
      2        6           0.029166707   -0.015265308   -0.000109416
      3        1          -0.007906810    0.008336758   -0.014138098
      4        1          -0.012088488   -0.014930702   -0.000444619
      5        1          -0.007373763    0.008633475    0.013205317
      6        6           0.015277772    0.037753229    0.002804879
      7        1          -0.006021252   -0.014146377    0.012688118
      8        1          -0.007616117   -0.010899000   -0.014795786
      9        6          -0.026908228   -0.010094428    0.000371963
     10        7           0.027132173   -0.026171547   -0.004117091
     11        6          -0.015048029   -0.049585914   -0.007704260
     12        1          -0.012077611    0.011942265   -0.013023574
     13        1          -0.011530585    0.007265131    0.016428508
     14        1           0.014938791    0.006214866    0.000739224
     15        1           0.007912909    0.005696640    0.012210182
     16        1           0.006461679    0.008917697   -0.011127726
     17        1           0.008575150   -0.011702854   -0.002062789
 -------------------------------------------------------------------
 Cartesian Forces:  Max     0.058036152 RMS     0.017090045
 Leave Link  716 at Tue Feb  7 16:46:54 2017, MaxMem=  1048576000 cpu:         0.2
 (Enter /mnt/data/applications/G09/g09/l103.exe)

 GradGradGradGradGradGradGradGradGradGradGradGradGradGradGradGradGradGrad
 Berny optimization.
 FormGI is forming the generalized inverse of G from B-inverse, IUseBI=4.
 Internal  Forces:  Max     0.063925740 RMS     0.012590352
 Search for a local minimum.
 Step number   1 out of a maximum of   80
 All quantities printed in internal units (Hartrees-Bohrs-Radians)
 RMS Force = .12590D-01 SwitMx=.10000D-02 MixMth= 1
 Mixed Optimization -- RFO/linear search
 Second derivative matrix not updated -- first step.
 ITU=  0
     Eigenvalues ---    0.00237   0.00237   0.00237   0.00647   0.00766
     Eigenvalues ---    0.03099   0.04356   0.05410   0.05720   0.05720
     Eigenvalues ---    0.07243   0.07243   0.08669   0.10141   0.10141
     Eigenvalues ---    0.12376   0.16000   0.16000   0.16000   0.16000
     Eigenvalues ---    0.16000   0.16000   0.16000   0.16000   0.16000
     Eigenvalues ---    0.21983   0.25000   0.25000   0.25000   0.28519
     Eigenvalues ---    0.28519   0.28519   0.35740   0.37230   0.37230
     Eigenvalues ---    0.37230   0.37230   0.37230   0.37230   0.37230
     Eigenvalues ---    0.37230   0.37230   0.37230   0.37230   0.69002
 RFO step:  Lambda=-3.24866082D-02 EMin= 2.36824121D-03
 Linear search not attempted -- first point.
 Maximum step size (   0.300) exceeded in Quadratic search.
    -- Step size scaled by   0.939
 Iteration  1 RMS(Cart)=  0.13480951 RMS(Int)=  0.00689929
 Iteration  2 RMS(Cart)=  0.01819206 RMS(Int)=  0.00023181
 Iteration  3 RMS(Cart)=  0.00021255 RMS(Int)=  0.00020696
 Iteration  4 RMS(Cart)=  0.00000003 RMS(Int)=  0.00020696
 ITry= 1 IFail=0 DXMaxC= 4.03D-01 DCOld= 1.00D+10 DXMaxT= 3.00D-01 DXLimC= 3.00D+00 Rises=F
 Variable       Old X    -DE/DX   Delta X   Delta X   Delta X     New X
                                 (Linear)    (Quad)   (Total)
    R1        2.91018  -0.00180   0.00000  -0.00531  -0.00531   2.90486
    R2        2.91018  -0.00590   0.00000  -0.01745  -0.01745   2.89273
    R3        2.44455  -0.04244   0.00000  -0.05518  -0.05518   2.38937
    R4        2.02201   0.01811   0.00000   0.04202   0.04202   2.06403
    R5        2.02201   0.01810   0.00000   0.04201   0.04201   2.06402
    R6        2.02201   0.01731   0.00000   0.04017   0.04017   2.06218
    R7        2.02201   0.01957   0.00000   0.04541   0.04541   2.06742
    R8        2.02201   0.01954   0.00000   0.04534   0.04534   2.06735
    R9        2.91018  -0.00521   0.00000  -0.01542  -0.01542   2.89476
   R10        2.02201   0.01520   0.00000   0.03528   0.03528   2.05729
   R11        2.02201   0.01522   0.00000   0.03533   0.03533   2.05734
   R12        2.02201   0.01457   0.00000   0.03382   0.03382   2.05583
   R13        2.77790  -0.01988   0.00000  -0.04790  -0.04790   2.73000
   R14        2.02201   0.02072   0.00000   0.04809   0.04809   2.07010
   R15        2.02201   0.02075   0.00000   0.04815   0.04815   2.07016
   R16        2.02201   0.01608   0.00000   0.03732   0.03732   2.05933
    A1        2.09241  -0.01751   0.00000  -0.05821  -0.05821   2.03420
    A2        2.09241   0.01143   0.00000   0.03801   0.03801   2.13042
    A3        2.09836   0.00608   0.00000   0.02020   0.02020   2.11856
    A4        1.91063   0.00069   0.00000   0.00142   0.00128   1.91191
    A5        1.91063   0.00907   0.00000   0.04723   0.04696   1.95759
    A6        1.91063   0.00046   0.00000   0.00121   0.00104   1.91167
    A7        1.91063  -0.00426   0.00000  -0.01873  -0.01897   1.89167
    A8        1.91063  -0.00239   0.00000  -0.01758  -0.01761   1.89303
    A9        1.91063  -0.00357   0.00000  -0.01354  -0.01384   1.89679
   A10        1.91063  -0.00516   0.00000  -0.01662  -0.01723   1.89341
   A11        1.91063  -0.00508   0.00000  -0.01603  -0.01664   1.89399
   A12        1.91063   0.01668   0.00000   0.07031   0.06992   1.98055
   A13        1.91063  -0.00011   0.00000  -0.02769  -0.02812   1.88251
   A14        1.91063  -0.00314   0.00000  -0.00487  -0.00502   1.90561
   A15        1.91063  -0.00319   0.00000  -0.00510  -0.00528   1.90536
   A16        1.91063   0.00414   0.00000   0.02125   0.02105   1.93169
   A17        1.91063   0.00422   0.00000   0.02181   0.02161   1.93225
   A18        1.91063   0.00033   0.00000  -0.00065  -0.00063   1.91000
   A19        1.91063  -0.00317   0.00000  -0.01094  -0.01132   1.89931
   A20        1.91063  -0.00278   0.00000  -0.01598  -0.01596   1.89467
   A21        1.91063  -0.00274   0.00000  -0.01549  -0.01548   1.89515
   A22        2.44342  -0.06393   0.00000  -0.21257  -0.21257   2.23084
   A23        1.91063   0.00719   0.00000   0.03591   0.03568   1.94632
   A24        1.91063   0.00646   0.00000   0.03204   0.03181   1.94244
   A25        1.91063  -0.00541   0.00000  -0.02770  -0.02757   1.88306
   A26        1.91063  -0.00528   0.00000  -0.02310  -0.02364   1.88700
   A27        1.91063  -0.00149   0.00000  -0.00831  -0.00817   1.90246
   A28        1.91063  -0.00148   0.00000  -0.00885  -0.00873   1.90190
    D1       -1.94508  -0.00092   0.00000  -0.00673  -0.00682  -1.95190
    D2        0.14931  -0.00015   0.00000   0.00011   0.00009   0.14940
    D3        2.24371   0.00131   0.00000   0.01319   0.01329   2.25700
    D4        1.19651  -0.00090   0.00000  -0.00630  -0.00638   1.19013
    D5       -2.99228  -0.00013   0.00000   0.00055   0.00052  -2.99176
    D6       -0.89788   0.00133   0.00000   0.01362   0.01373  -0.88416
    D7       -1.11542   0.00321   0.00000   0.02707   0.02684  -1.08858
    D8        0.97898  -0.00319   0.00000  -0.02684  -0.02663   0.95235
    D9        3.07337   0.00000   0.00000   0.00015   0.00015   3.07353
   D10        2.02617   0.00319   0.00000   0.02663   0.02641   2.05259
   D11       -2.16262  -0.00321   0.00000  -0.02728  -0.02706  -2.18968
   D12       -0.06822  -0.00002   0.00000  -0.00029  -0.00028  -0.06850
   D13        0.00000   0.00009   0.00000   0.00126   0.00125   0.00125
   D14        3.14159   0.00011   0.00000   0.00170   0.00171  -3.13988
   D15        1.07114   0.00057   0.00000   0.00540   0.00551   1.07664
   D16       -1.02326  -0.00066   0.00000  -0.00757  -0.00767  -1.03092
   D17       -3.11765  -0.00009   0.00000  -0.00155  -0.00155  -3.11921
   D18       -1.02326  -0.00140   0.00000  -0.01433  -0.01435  -1.03760
   D19       -3.11765  -0.00264   0.00000  -0.02729  -0.02752   3.13801
   D20        1.07114  -0.00206   0.00000  -0.02128  -0.02141   1.04973
   D21       -3.11765   0.00261   0.00000   0.02570   0.02592  -3.09173
   D22        1.07114   0.00137   0.00000   0.01273   0.01275   1.08389
   D23       -1.02326   0.00195   0.00000   0.01874   0.01886  -1.00440
   D24       -1.02734  -0.00097   0.00000  -0.00831  -0.00884  -1.03618
   D25        1.06706   0.00093   0.00000   0.00502   0.00553   1.07259
   D26       -3.12173  -0.00024   0.00000  -0.00316  -0.00315  -3.12488
         Item               Value     Threshold  Converged?
 Maximum Force            0.063926     0.000450     NO 
 RMS     Force            0.012590     0.000300     NO 
 Maximum Displacement     0.403437     0.001800     NO 
 RMS     Displacement     0.146654     0.001200     NO 
 Predicted change in Energy=-1.774704D-02
 Lowest energy point so far.  Saving SCF results.
 GradGradGradGradGradGradGradGradGradGradGradGradGradGradGradGradGradGrad

 Leave Link  103 at Tue Feb  7 16:46:55 2017, MaxMem=  1048576000 cpu:         0.1
 (Enter /mnt/data/applications/G09/g09/l202.exe)
                          Input orientation:                          
 ---------------------------------------------------------------------
 Center     Atomic      Atomic             Coordinates (Angstroms)
 Number     Number       Type             X           Y           Z
 ---------------------------------------------------------------------
      1          6    10061002       -2.271050    0.481997    0.013735
      2          6    10061003       -3.808178    0.468377    0.014410
      3          1    10011000       -4.178572    0.986557   -0.872879
      4          1    10011000       -4.211210   -0.546777    0.013852
      5          1    10011000       -4.177250    0.990433    0.898768
      6          6    10061003       -1.574921   -0.865809   -0.191374
      7          1    10011000       -1.844113   -1.525166    0.639101
      8          1    10011000       -1.954043   -1.315891   -1.113609
      9          6    10061003       -0.049124   -0.758210   -0.274464
     10          7    10071002       -1.609159    1.547302    0.174166
     11          6    10061003       -2.117819    2.883798    0.379273
     12          1    10011000       -2.747761    3.206629   -0.456767
     13          1    10011000       -2.711855    2.946806    1.297548
     14          1    10011000       -1.265245    3.557472    0.461950
     15          1    10011000        0.359149   -0.359101    0.652481
     16          1    10011000        0.246838   -0.109097   -1.096848
     17          1    10011000        0.374792   -1.745921   -0.442523
 ---------------------------------------------------------------------
                    Distance matrix (angstroms):
                    1          2          3          4          5
     1  C    0.000000
     2  C    1.537188   0.000000
     3  H    2.163170   1.092238   0.000000
     4  H    2.196041   1.092233   1.771573   0.000000
     5  H    2.162265   1.091259   1.771651   1.774047   0.000000
     6  C    1.530767   2.609566   3.267217   2.663441   3.377301
     7  H    2.145242   2.867403   3.747604   2.636538   3.440813
     8  H    2.145647   2.809600   3.210568   2.637709   3.783046
     9  C    2.560885   3.964650   4.522682   4.177414   4.634183
    10  N    1.264402   2.454646   2.830658   3.343881   2.725848
    11  C    2.434286   2.970640   3.068243   4.035427   2.845341
    12  H    2.805752   2.973973   2.673778   4.056010   2.965204
    13  H    2.813852   2.998496   3.271787   4.012613   2.476651
    14  H    3.266663   4.026079   4.108387   5.071919   3.906440
    15  H    2.834324   4.296332   4.972769   4.618577   4.739285
    16  H    2.814702   4.243999   4.564523   4.615129   4.976345
    17  H    3.488879   4.754907   5.327735   4.762105   5.477936
                    6          7          8          9         10
     6  C    0.000000
     7  H    1.094031   0.000000
     8  H    1.093995   1.768579   0.000000
     9  C    1.531841   2.155181   2.154968   0.000000
    10  N    2.440880   3.116316   3.158352   2.819639   0.000000
    11  C    3.831440   4.425086   4.460147   4.239233   1.444654
    12  H    4.246261   4.940383   4.638385   4.799565   2.108994
    13  H    4.248004   4.602723   4.955657   4.825816   2.106309
    14  H    4.481980   5.118562   5.167833   4.543828   2.059582
    15  H    2.170132   2.492840   3.063557   1.088671   2.781618
    16  H    2.170554   3.064449   2.510082   1.088695   2.793539
    17  H    2.153846   2.478343   2.461454   1.087897   3.893801
                   11         12         13         14         15
    11  C    0.000000
    12  H    1.095450   0.000000
    13  H    1.095481   1.773815   0.000000
    14  H    1.089749   1.779040   1.778713   0.000000
    15  H    4.089793   4.857752   4.558092   4.244350   0.000000
    16  H    4.089982   4.513465   4.881141   4.261452   1.770669
    17  H    5.321913   5.854766   5.880214   5.624391   1.767073
                   16         17
    16  H    0.000000
    17  H    1.767401   0.000000
 Symmetry turned off by external request.
 Stoichiometry    C5H11N
 Framework group  C1[X(C5H11N)]
 Deg. of freedom    45
 Full point group                 C1      NOp   1
 Rotational constants (GHZ):      5.0791330      2.5137296      1.7559412
 Leave Link  202 at Tue Feb  7 16:46:55 2017, MaxMem=  1048576000 cpu:         0.0
 (Enter /mnt/data/applications/G09/g09/l120.exe)
 SvSCFP did not find density file   528.
 ONIOM: saving gridpoint 17
 ONIOM: restoring gridpoint  3
 ONIOM: restoring gridpoint  3 on chk file.
 ONIOM: generating point  3 -- low level on real system.
 Leave Link  120 at Tue Feb  7 16:46:55 2017, MaxMem=  1048576000 cpu:         0.0
 (Enter /mnt/data/applications/G09/g09/l301.exe)
 Standard basis: STO-3G (5D, 7F)
 Ernie: Thresh=  0.10000D-02 Tol=  0.10000D-05 Strict=F.
    41 basis functions,   123 primitive gaussians,    41 cartesian basis functions
    24 alpha electrons       24 beta electrons
       nuclear repulsion energy       240.1181689372 Hartrees.
 IExCor=    0 DFT=F Ex=HF Corr=None ExCW=0 ScaHFX=  1.000000
 ScaDFX=  1.000000  1.000000  1.000000  1.000000 ScalE2=  1.000000  1.000000
 IRadAn=      0 IRanWt=     -1 IRanGd=            0 ICorTp=0 IEmpDi=  4
 NAtoms=   17 NActive=   17 NUniq=   17 SFac= 1.00D+00 NAtFMM=   60 NAOKFM=F Big=F
 Integral buffers will be    131072 words long.
 Raffenetti 1 integral format.
 Two-electron integral symmetry is turned off.
 Leave Link  301 at Tue Feb  7 16:46:55 2017, MaxMem=  1048576000 cpu:         0.5
 (Enter /mnt/data/applications/G09/g09/l402.exe)
 External calculation of energy and first derivatives.
 Running external command "./sictwo_files/sictwo_g09d01 R"
         input file       "/scratch/Gau-11696.EIn"
         output file      "/scratch/Gau-11696.EOu"
         message file     "/scratch/Gau-11696.EMs"
         fchk file        "/scratch/Gau-11696.EFC"
         mat. el file     "/scratch/Gau-11696.EUF"

---------------------------- SICTWO Version 1.0 STARTED -----------------------------

MM calculations started
MM calculations finished ....
Information recovery

---------------------------- SICTWO Version 1.0 FINISHED -----------------------------

 Recovered energy= 0.269541673140E-01 dipole=     -0.896234321354     -0.441428844846     -0.064522576252
 Energy=    2.695416731E-02 NIter=   0.
 Dipole moment=      -0.896234      -0.441429      -0.064523
 Leave Link  402 at Tue Feb  7 16:46:58 2017, MaxMem=  1048576000 cpu:        18.8
 (Enter /mnt/data/applications/G09/g09/l716.exe)
 Dipole        =-8.96234321D-01-4.41428845D-01-6.45225763D-02
 Cartesian Forces:  Max     0.033366817 RMS     0.007774392
 Leave Link  716 at Tue Feb  7 16:46:58 2017, MaxMem=  1048576000 cpu:         0.2
 (Enter /mnt/data/applications/G09/g09/l120.exe)
 SvSCFP did not find density file   528.
 ONIOM: saving gridpoint  3
 ONIOM: restoring gridpoint  2
 ONIOM: restoring gridpoint  2 on chk file.
 ONIOM: generating point  2 -- high level on model system.
 Leave Link  120 at Tue Feb  7 16:46:58 2017, MaxMem=  1048576000 cpu:         0.0
 (Enter /mnt/data/applications/G09/g09/l301.exe)
 Standard basis: 6-31G(d) (6D, 7F)
 Ernie: Thresh=  0.10000D-02 Tol=  0.10000D-05 Strict=F.
    93 basis functions,   176 primitive gaussians,    93 cartesian basis functions
    20 alpha electrons       20 beta electrons
       nuclear repulsion energy       176.3788613255 Hartrees.
 IExCor=  402 DFT=T Ex+Corr=B3LYP ExCW=0 ScaHFX=  0.200000
 ScaDFX=  0.800000  0.720000  1.000000  0.810000 ScalE2=  1.000000  1.000000
 IRadAn=      0 IRanWt=     -1 IRanGd=            0 ICorTp=0 IEmpDi=  4
 NAtoms=   17 NActive=   14 NUniq=   14 SFac= 1.00D+00 NAtFMM=   60 NAOKFM=F Big=F
 Integral buffers will be    131072 words long.
 Raffenetti 2 integral format.
 Two-electron integral symmetry is turned off.
 Leave Link  301 at Tue Feb  7 16:46:58 2017, MaxMem=  1048576000 cpu:         0.5
 (Enter /mnt/data/applications/G09/g09/l302.exe)
 NPDir=0 NMtPBC=     1 NCelOv=     1 NCel=       1 NClECP=     1 NCelD=      1
         NCelK=      1 NCelE2=     1 NClLst=     1 CellRange=     0.0.
 One-electron integrals computed using PRISM.
 NBasis=    93 RedAO= T EigKep=  3.45D-03  NBF=    93
 NBsUse=    93 1.00D-06 EigRej= -1.00D+00 NBFU=    93
 Precomputing XC quadrature grid using
 IXCGrd= 4 IRadAn=           0 IRanWt=          -1 IRanGd=           0 AccXCQ= 0.00D+00.
 Generated NRdTot=       0 NPtTot=           0 NUsed=           0 NTot=          32
 NSgBfM=    93    93    93    93    93 MxSgAt=    14 MxSgA2=    14.
 Leave Link  302 at Tue Feb  7 16:46:58 2017, MaxMem=  1048576000 cpu:         1.4
 (Enter /mnt/data/applications/G09/g09/l303.exe)
 DipDrv:  MaxL=1.
 Leave Link  303 at Tue Feb  7 16:46:58 2017, MaxMem=  1048576000 cpu:         0.2
 (Enter /mnt/data/applications/G09/g09/l401.exe)
 Initial guess from the checkpoint file:  "I_2.chk"
 B after Tr=     0.079170    0.189829    0.024248
         Rot=    0.999936   -0.000642    0.001374   -0.011187 Ang=  -1.29 deg.
 Guess basis will be translated and rotated to current coordinates.
 JPrj=2 DoOrth=T DoCkMO=T.
 Generating alternative initial guess.
 ExpMin= 1.61D-01 ExpMax= 4.17D+03 ExpMxC= 6.27D+02 IAcc=1 IRadAn=         1 AccDes= 0.00D+00
 Harris functional with IExCor=  402 and IRadAn=       1 diagonalized for initial guess.
 HarFok:  IExCor=  402 AccDes= 0.00D+00 IRadAn=         1 IDoV= 1 UseB2=F ITyADJ=14
 ICtDFT=  3500011 ScaDFX=  1.000000  1.000000  1.000000  1.000000
 FoFCou: FMM=F IPFlag=           0 FMFlag=      100000 FMFlg1=           0
         NFxFlg=           0 DoJE=T BraDBF=F KetDBF=T FulRan=T
         wScrn=  0.000000 ICntrl=     500 IOpCl=  0 I1Cent=   200000004 NGrid=           0
         NMat0=    1 NMatS0=      1 NMatT0=    0 NMatD0=    1 NMtDS0=    0 NMtDT0=    0
 Symmetry not used in FoFCou.
 Harris En= -212.620973714496    
 Leave Link  401 at Tue Feb  7 16:46:59 2017, MaxMem=  1048576000 cpu:         2.7
 (Enter /mnt/data/applications/G09/g09/l502.exe)
 Closed shell SCF:
 Using DIIS extrapolation, IDIIS=  1040.
 Two-electron integral symmetry not used.
 Keep R1 ints in memory in canonical form, NReq=10509617.
 IVT=       39309 IEndB=       39309 NGot=  1048576000 MDV=  1038981686
 LenX=  1038981686 LenY=  1038972596
 Requested convergence on RMS density matrix=1.00D-08 within 100 cycles.
 Requested convergence on MAX density matrix=1.00D-06.
 Requested convergence on             energy=1.00D-06.
 No special actions if energy rises.
 FoFCou: FMM=F IPFlag=           0 FMFlag=           0 FMFlg1=           0
         NFxFlg=           0 DoJE=F BraDBF=F KetDBF=F FulRan=T
         wScrn=  0.000000 ICntrl=     600 IOpCl=  0 I1Cent=           0 NGrid=           0
         NMat0=    1 NMatS0=   4371 NMatT0=    0 NMatD0=    1 NMtDS0=    0 NMtDT0=    0
 Symmetry not used in FoFCou.
 Integral accuracy reduced to 1.0D-05 until final iterations.

 Cycle   1  Pass 0  IDiag  1:
 E= -212.562138500438    
 DIIS: error= 8.38D-03 at cycle   1 NSaved=   1.
 NSaved= 1 IEnMin= 1 EnMin= -212.562138500438     IErMin= 1 ErrMin= 8.38D-03
 ErrMax= 8.38D-03  0.00D+00 EMaxC= 1.00D-01 BMatC= 8.24D-03 BMatP= 8.24D-03
 IDIUse=3 WtCom= 9.16D-01 WtEn= 8.38D-02
 Coeff-Com:  0.100D+01
 Coeff-En:   0.100D+01
 Coeff:      0.100D+01
 Gap=     1.905 Goal=   None    Shift=    0.000
 GapD=    1.905 DampG=2.000 DampE=1.000 DampFc=2.0000 IDamp=-1.
 RMSDP=1.69D-03 MaxDP=2.16D-02              OVMax= 3.59D-02

 Cycle   2  Pass 0  IDiag  1:
 E= -212.576806087611     Delta-E=       -0.014667587173 Rises=F Damp=F
 DIIS: error= 2.39D-03 at cycle   2 NSaved=   2.
 NSaved= 2 IEnMin= 2 EnMin= -212.576806087611     IErMin= 2 ErrMin= 2.39D-03
 ErrMax= 2.39D-03  0.00D+00 EMaxC= 1.00D-01 BMatC= 7.32D-04 BMatP= 8.24D-03
 IDIUse=3 WtCom= 9.76D-01 WtEn= 2.39D-02
 Coeff-Com:  0.679D-01 0.932D+00
 Coeff-En:   0.000D+00 0.100D+01
 Coeff:      0.663D-01 0.934D+00
 Gap=     0.229 Goal=   None    Shift=    0.000
 RMSDP=5.61D-04 MaxDP=1.18D-02 DE=-1.47D-02 OVMax= 1.87D-02

 Cycle   3  Pass 0  IDiag  1:
 E= -212.576297237084     Delta-E=        0.000508850526 Rises=F Damp=F
 DIIS: error= 3.39D-03 at cycle   3 NSaved=   3.
 NSaved= 3 IEnMin= 2 EnMin= -212.576806087611     IErMin= 2 ErrMin= 2.39D-03
 ErrMax= 3.39D-03  0.00D+00 EMaxC= 1.00D-01 BMatC= 1.39D-03 BMatP= 7.32D-04
 IDIUse=3 WtCom= 1.47D-01 WtEn= 8.53D-01
 Coeff-Com: -0.382D-01 0.601D+00 0.437D+00
 Coeff-En:   0.000D+00 0.620D+00 0.380D+00
 Coeff:     -0.559D-02 0.617D+00 0.389D+00
 Gap=     0.232 Goal=   None    Shift=    0.000
 RMSDP=3.71D-04 MaxDP=8.95D-03 DE= 5.09D-04 OVMax= 1.49D-02

 Cycle   4  Pass 0  IDiag  1:
 E= -212.577488451397     Delta-E=       -0.001191214313 Rises=F Damp=F
 DIIS: error= 5.68D-04 at cycle   4 NSaved=   4.
 NSaved= 4 IEnMin= 4 EnMin= -212.577488451397     IErMin= 4 ErrMin= 5.68D-04
 ErrMax= 5.68D-04  0.00D+00 EMaxC= 1.00D-01 BMatC= 4.42D-05 BMatP= 7.32D-04
 IDIUse=3 WtCom= 9.94D-01 WtEn= 5.68D-03
 Coeff-Com: -0.273D-01 0.325D+00 0.238D+00 0.464D+00
 Coeff-En:   0.000D+00 0.000D+00 0.000D+00 0.100D+01
 Coeff:     -0.272D-01 0.323D+00 0.237D+00 0.467D+00
 Gap=     0.231 Goal=   None    Shift=    0.000
 RMSDP=6.14D-05 MaxDP=1.37D-03 DE=-1.19D-03 OVMax= 2.50D-03

 Cycle   5  Pass 0  IDiag  1:
 E= -212.577529600960     Delta-E=       -0.000041149563 Rises=F Damp=F
 DIIS: error= 9.11D-05 at cycle   5 NSaved=   5.
 NSaved= 5 IEnMin= 5 EnMin= -212.577529600960     IErMin= 5 ErrMin= 9.11D-05
 ErrMax= 9.11D-05  0.00D+00 EMaxC= 1.00D-01 BMatC= 7.36D-07 BMatP= 4.42D-05
 IDIUse=1 WtCom= 1.00D+00 WtEn= 0.00D+00
 Coeff-Com: -0.467D-02 0.433D-01 0.340D-01 0.135D+00 0.793D+00
 Coeff:     -0.467D-02 0.433D-01 0.340D-01 0.135D+00 0.793D+00
 Gap=     0.231 Goal=   None    Shift=    0.000
 RMSDP=1.75D-05 MaxDP=2.19D-04 DE=-4.11D-05 OVMax= 2.62D-04

 Cycle   6  Pass 0  IDiag  1:
 E= -212.577530228909     Delta-E=       -0.000000627948 Rises=F Damp=F
 DIIS: error= 2.84D-05 at cycle   6 NSaved=   6.
 NSaved= 6 IEnMin= 6 EnMin= -212.577530228909     IErMin= 6 ErrMin= 2.84D-05
 ErrMax= 2.84D-05  0.00D+00 EMaxC= 1.00D-01 BMatC= 9.97D-08 BMatP= 7.36D-07
 IDIUse=1 WtCom= 1.00D+00 WtEn= 0.00D+00
 Coeff-Com: -0.873D-03 0.433D-02 0.376D-02 0.359D-01 0.339D+00 0.618D+00
 Coeff:     -0.873D-03 0.433D-02 0.376D-02 0.359D-01 0.339D+00 0.618D+00
 Gap=     0.231 Goal=   None    Shift=    0.000
 RMSDP=5.51D-06 MaxDP=6.21D-05 DE=-6.28D-07 OVMax= 8.33D-05

 Initial convergence to 1.0D-05 achieved.  Increase integral accuracy.
 Cycle   7  Pass 1  IDiag  1:
 E= -212.577532042844     Delta-E=       -0.000001813935 Rises=F Damp=F
 DIIS: error= 1.17D-05 at cycle   1 NSaved=   1.
 NSaved= 1 IEnMin= 1 EnMin= -212.577532042844     IErMin= 1 ErrMin= 1.17D-05
 ErrMax= 1.17D-05  0.00D+00 EMaxC= 1.00D-01 BMatC= 1.88D-08 BMatP= 1.88D-08
 IDIUse=1 WtCom= 1.00D+00 WtEn= 0.00D+00
 Coeff-Com:  0.100D+01
 Coeff:      0.100D+01
 Gap=     0.232 Goal=   None    Shift=    0.000
 RMSDP=5.51D-06 MaxDP=6.21D-05 DE=-1.81D-06 OVMax= 7.25D-05

 Cycle   8  Pass 1  IDiag  1:
 E= -212.577532055943     Delta-E=       -0.000000013100 Rises=F Damp=F
 DIIS: error= 9.76D-06 at cycle   2 NSaved=   2.
 NSaved= 2 IEnMin= 2 EnMin= -212.577532055943     IErMin= 2 ErrMin= 9.76D-06
 ErrMax= 9.76D-06  0.00D+00 EMaxC= 1.00D-01 BMatC= 1.32D-08 BMatP= 1.88D-08
 IDIUse=1 WtCom= 1.00D+00 WtEn= 0.00D+00
 Coeff-Com:  0.441D+00 0.559D+00
 Coeff:      0.441D+00 0.559D+00
 Gap=     0.231 Goal=   None    Shift=    0.000
 RMSDP=1.74D-06 MaxDP=3.66D-05 DE=-1.31D-08 OVMax= 6.98D-05

 Cycle   9  Pass 1  IDiag  1:
 E= -212.577532065712     Delta-E=       -0.000000009769 Rises=F Damp=F
 DIIS: error= 5.79D-06 at cycle   3 NSaved=   3.
 NSaved= 3 IEnMin= 3 EnMin= -212.577532065712     IErMin= 3 ErrMin= 5.79D-06
 ErrMax= 5.79D-06  0.00D+00 EMaxC= 1.00D-01 BMatC= 4.35D-09 BMatP= 1.32D-08
 IDIUse=1 WtCom= 1.00D+00 WtEn= 0.00D+00
 Coeff-Com:  0.751D-01 0.355D+00 0.570D+00
 Coeff:      0.751D-01 0.355D+00 0.570D+00
 Gap=     0.231 Goal=   None    Shift=    0.000
 RMSDP=7.54D-07 MaxDP=2.02D-05 DE=-9.77D-09 OVMax= 3.71D-05

 Cycle  10  Pass 1  IDiag  1:
 E= -212.577532069103     Delta-E=       -0.000000003391 Rises=F Damp=F
 DIIS: error= 2.20D-06 at cycle   4 NSaved=   4.
 NSaved= 4 IEnMin= 4 EnMin= -212.577532069103     IErMin= 4 ErrMin= 2.20D-06
 ErrMax= 2.20D-06  0.00D+00 EMaxC= 1.00D-01 BMatC= 7.35D-10 BMatP= 4.35D-09
 IDIUse=1 WtCom= 1.00D+00 WtEn= 0.00D+00
 Coeff-Com: -0.152D-01 0.154D+00 0.361D+00 0.499D+00
 Coeff:     -0.152D-01 0.154D+00 0.361D+00 0.499D+00
 Gap=     0.231 Goal=   None    Shift=    0.000
 RMSDP=3.13D-07 MaxDP=7.16D-06 DE=-3.39D-09 OVMax= 1.05D-05

 Cycle  11  Pass 1  IDiag  1:
 E= -212.577532069741     Delta-E=       -0.000000000638 Rises=F Damp=F
 DIIS: error= 3.02D-07 at cycle   5 NSaved=   5.
 NSaved= 5 IEnMin= 5 EnMin= -212.577532069741     IErMin= 5 ErrMin= 3.02D-07
 ErrMax= 3.02D-07  0.00D+00 EMaxC= 1.00D-01 BMatC= 8.06D-12 BMatP= 7.35D-10
 IDIUse=1 WtCom= 1.00D+00 WtEn= 0.00D+00
 Coeff-Com: -0.785D-02 0.516D-01 0.121D+00 0.203D+00 0.633D+00
 Coeff:     -0.785D-02 0.516D-01 0.121D+00 0.203D+00 0.633D+00
 Gap=     0.231 Goal=   None    Shift=    0.000
 RMSDP=4.63D-08 MaxDP=4.98D-07 DE=-6.38D-10 OVMax= 7.92D-07

 Cycle  12  Pass 1  IDiag  1:
 E= -212.577532069750     Delta-E=       -0.000000000009 Rises=F Damp=F
 DIIS: error= 7.27D-08 at cycle   6 NSaved=   6.
 NSaved= 6 IEnMin= 6 EnMin= -212.577532069750     IErMin= 6 ErrMin= 7.27D-08
 ErrMax= 7.27D-08  0.00D+00 EMaxC= 1.00D-01 BMatC= 5.08D-13 BMatP= 8.06D-12
 IDIUse=1 WtCom= 1.00D+00 WtEn= 0.00D+00
 Coeff-Com: -0.244D-02 0.133D-01 0.289D-01 0.572D-01 0.255D+00 0.648D+00
 Coeff:     -0.244D-02 0.133D-01 0.289D-01 0.572D-01 0.255D+00 0.648D+00
 Gap=     0.231 Goal=   None    Shift=    0.000
 RMSDP=8.59D-09 MaxDP=1.64D-07 DE=-8.70D-12 OVMax= 2.03D-07

 SCF Done:  E(RB3LYP) =  -212.577532070     A.U. after   12 cycles
            NFock= 12  Conv=0.86D-08     -V/T= 2.0101
 KE= 2.104609770148D+02 PE=-8.449999782075D+02 EE= 2.455826077975D+02
 Leave Link  502 at Tue Feb  7 16:47:01 2017, MaxMem=  1048576000 cpu:        19.4
 (Enter /mnt/data/applications/G09/g09/l701.exe)
 Compute integral first derivatives.
 ... and contract with generalized density number  0.
 Leave Link  701 at Tue Feb  7 16:47:01 2017, MaxMem=  1048576000 cpu:         1.3
 (Enter /mnt/data/applications/G09/g09/l702.exe)
 L702 exits ... SP integral derivatives will be done elsewhere.
 Leave Link  702 at Tue Feb  7 16:47:02 2017, MaxMem=  1048576000 cpu:         0.2
 (Enter /mnt/data/applications/G09/g09/l703.exe)
 Compute integral first derivatives, UseDBF=F ICtDFT=           0.
 Integral derivatives from FoFJK, PRISM(SPDF).
 Calling FoFJK, ICntrl=      2127 FMM=F ISym2X=0 I1Cent= 0 IOpClX= 0 NMat=1 NMatS=1 NMatT=0.
 FoFJK:  IHMeth= 1 ICntrl=    2127 DoSepK=F KAlg= 0 I1Cent=   0 FoldK=F
 IRaf=         0 NMat=   1 IRICut=       1 DoRegI=T DoRafI=F ISym2E= 0.
 FoFCou: FMM=F IPFlag=           0 FMFlag=      100000 FMFlg1=         800
         NFxFlg=           0 DoJE=F BraDBF=F KetDBF=F FulRan=T
         wScrn=  0.000000 ICntrl=    2127 IOpCl=  0 I1Cent=           0 NGrid=           0
         NMat0=    1 NMatS0=      1 NMatT0=    0 NMatD0=    1 NMtDS0=    0 NMtDT0=    0
 Symmetry not used in FoFCou.
 Leave Link  703 at Tue Feb  7 16:47:03 2017, MaxMem=  1048576000 cpu:         6.6
 (Enter /mnt/data/applications/G09/g09/l716.exe)
 Dipole        =-6.52723980D-01-1.36956171D-01-2.28671573D-02
 Cartesian Forces:  Max     0.031565257 RMS     0.006335957
 Leave Link  716 at Tue Feb  7 16:47:03 2017, MaxMem=  1048576000 cpu:         0.2
 (Enter /mnt/data/applications/G09/g09/l120.exe)
 SvSCFP is copying densities from files   528 and   530 to   603.
 ONIOM: saving gridpoint  2
 ONIOM: restoring gridpoint  1
 ONIOM: restoring gridpoint  1 on chk file.
 ONIOM: generating point  1 -- low level on model system.
 Leave Link  120 at Tue Feb  7 16:47:03 2017, MaxMem=  1048576000 cpu:         0.2
 (Enter /mnt/data/applications/G09/g09/l301.exe)
 Standard basis: STO-3G (5D, 7F)
 Ernie: Thresh=  0.10000D-02 Tol=  0.10000D-05 Strict=F.
    34 basis functions,   102 primitive gaussians,    34 cartesian basis functions
    20 alpha electrons       20 beta electrons
       nuclear repulsion energy       176.3788613255 Hartrees.
 IExCor=    0 DFT=F Ex=HF Corr=None ExCW=0 ScaHFX=  1.000000
 ScaDFX=  1.000000  1.000000  1.000000  1.000000 ScalE2=  1.000000  1.000000
 IRadAn=      0 IRanWt=     -1 IRanGd=            0 ICorTp=0 IEmpDi=  4
 NAtoms=   17 NActive=   14 NUniq=   14 SFac= 1.00D+00 NAtFMM=   60 NAOKFM=F Big=F
 Integral buffers will be    131072 words long.
 Raffenetti 1 integral format.
 Two-electron integral symmetry is turned off.
 Leave Link  301 at Tue Feb  7 16:47:03 2017, MaxMem=  1048576000 cpu:         0.4
 (Enter /mnt/data/applications/G09/g09/l402.exe)
 External calculation of energy and first derivatives.
 Running external command "./sictwo_files/sictwo_g09d01 M"
         input file       "/scratch/Gau-11696.EIn"
         output file      "/scratch/Gau-11696.EOu"
         message file     "/scratch/Gau-11696.EMs"
         fchk file        "/scratch/Gau-11696.EFC"
         mat. el file     "/scratch/Gau-11696.EUF"

---------------------------- SICTWO Version 1.0 STARTED -----------------------------

MM calculations started
MM calculations finished ....
Information recovery

---------------------------- SICTWO Version 1.0 FINISHED -----------------------------

 Recovered energy= 0.290766844859E-01 dipole=     -0.896234321354     -0.441428844846     -0.064522576252
 Energy=    2.907668449E-02 NIter=   0.
 Dipole moment=      -0.896234      -0.441429      -0.064523
 Leave Link  402 at Tue Feb  7 16:47:05 2017, MaxMem=  1048576000 cpu:        16.1
 (Enter /mnt/data/applications/G09/g09/l716.exe)
 Dipole        =-8.96234321D-01-4.41428845D-01-6.45225763D-02
 Cartesian Forces:  Max     0.034384339 RMS     0.007868199
 Leave Link  716 at Tue Feb  7 16:47:05 2017, MaxMem=  1048576000 cpu:         0.2
 (Enter /mnt/data/applications/G09/g09/l120.exe)
 SvSCFP did not find density file   528.
 ONIOM: saving gridpoint  1
 ONIOM: restoring gridpoint  3
 ONIOM: calculating energy.
 ONIOM: gridpoint  1 method:  low   system:  model energy:     0.029076684486
 ONIOM: gridpoint  2 method:  high  system:  model energy:  -212.577532069750
 ONIOM: gridpoint  3 method:  low   system:  real  energy:     0.026954167314
 ONIOM: extrapolated energy =    -212.579654586922
 ONIOM: calculating first derivatives.
 ONIOM: calculating electric field derivatives.
 ONIOM: Integrating ONIOM file  4 number   619
 ONIOM: Dipole        =-6.52723980D-01-1.36956171D-01-2.28671573D-02
 ONIOM: Dipole moment (Debye):
    X=    -1.6591    Y=    -0.3481    Z=    -0.0581  Tot=     1.6962
 ONIOM: Integrating ONIOM file  5 number   695
[...]
 Berny optimization.
 Using GEDIIS/GDIIS optimizer.
 FormGI is forming the generalized inverse of G from B-inverse, IUseBI=4.
 Internal  Forces:  Max     0.000009303 RMS     0.000002095
 Search for a local minimum.
 Step number  15 out of a maximum of   80
 All quantities printed in internal units (Hartrees-Bohrs-Radians)
 RMS Force = .20954D-05 SwitMx=.10000D-02 MixMth= 2
 Mixed Optimization -- En-DIIS/RFO-DIIS
 Swapping is turned off.
 Update second derivatives using D2CorX and points    1    2    3    4    5
                                                      6    7    8    9   10
                                                     11   12   13   14   15
 DE= -3.13D-08 DEPred=-1.07D-08 R= 2.92D+00
 Trust test= 2.92D+00 RLast= 4.09D-03 DXMaxT set to 1.64D-01
 ITU=  0 -1  0  0  0  0  1  1  1 -1  1  1  1  1  0
     Eigenvalues ---    0.00035   0.00127   0.00231   0.00293   0.02196
     Eigenvalues ---    0.03648   0.04289   0.04913   0.05455   0.05523
     Eigenvalues ---    0.06380   0.06895   0.09499   0.09602   0.09763
     Eigenvalues ---    0.13029   0.13388   0.14710   0.15332   0.15948
     Eigenvalues ---    0.16034   0.16188   0.16313   0.16659   0.16851
     Eigenvalues ---    0.20385   0.22868   0.24321   0.27045   0.27802
     Eigenvalues ---    0.29141   0.30585   0.35866   0.36893   0.37135
     Eigenvalues ---    0.37202   0.37224   0.37232   0.37237   0.37292
     Eigenvalues ---    0.37306   0.37402   0.38025   0.39216   0.79005
 En-DIIS/RFO-DIIS IScMMF=        0 using points:    15   14   13   12   11
 RFO step:  Lambda=-5.89008938D-10.
 NNeg= 0 NP= 5 Switch=  2.50D-03 Rises=F DC=  5.43D-08 SmlDif=  1.00D-05
 RMS Error=  0.4833923262D-05 NUsed= 5 EDIIS=F
 DidBck=F Rises=F RFO-DIIS coefs:    0.89307    0.27859   -0.37636    0.19639    0.00830
 Iteration  1 RMS(Cart)=  0.00008210 RMS(Int)=  0.00000001
 Iteration  2 RMS(Cart)=  0.00000000 RMS(Int)=  0.00000001
 ITry= 1 IFail=0 DXMaxC= 2.32D-04 DCOld= 1.00D+10 DXMaxT= 1.64D-01 DXLimC= 3.00D+00 Rises=F
 Variable       Old X    -DE/DX   Delta X   Delta X   Delta X     New X
                                 (Linear)    (Quad)   (Total)
    R1        2.87753   0.00000   0.00001   0.00000   0.00001   2.87754
    R2        2.87452   0.00001   0.00001   0.00001   0.00002   2.87454
    R3        2.41137   0.00000   0.00000   0.00000   0.00000   2.41137
    R4        2.07459   0.00000   0.00000   0.00000   0.00000   2.07459
    R5        2.06614   0.00000   0.00000   0.00000   0.00000   2.06614
    R6        2.07355   0.00000   0.00000   0.00000   0.00000   2.07355
    R7        2.07902   0.00000  -0.00001   0.00000  -0.00001   2.07902
    R8        2.07912   0.00000   0.00000   0.00000   0.00000   2.07912
    R9        2.86564   0.00001   0.00002   0.00001   0.00002   2.86567
   R10        2.06917   0.00000   0.00000   0.00000   0.00000   2.06917
   R11        2.06915   0.00000   0.00000   0.00000   0.00000   2.06915
   R12        2.06826   0.00000   0.00000   0.00000   0.00000   2.06826
   R13        2.75296   0.00001   0.00003   0.00001   0.00004   2.75299
   R14        2.07973   0.00000  -0.00001   0.00000  -0.00001   2.07972
   R15        2.07973   0.00000  -0.00001   0.00000  -0.00001   2.07972
   R16        2.06708   0.00000  -0.00001   0.00000   0.00000   2.06707
    A1        2.00195   0.00000   0.00000  -0.00001  -0.00002   2.00194
    A2        2.17213   0.00000  -0.00001   0.00000  -0.00001   2.17212
    A3        2.10910   0.00001   0.00001   0.00001   0.00002   2.10913
    A4        1.93386   0.00000  -0.00001   0.00000   0.00000   1.93386
    A5        1.95532   0.00000   0.00001  -0.00001   0.00000   1.95531
    A6        1.93533   0.00000   0.00000   0.00000   0.00000   1.93533
    A7        1.88506   0.00000  -0.00001   0.00001   0.00000   1.88505
    A8        1.86205   0.00000   0.00001   0.00000   0.00001   1.86206
    A9        1.88882   0.00000   0.00000   0.00000   0.00000   1.88882
   A10        1.89708   0.00000   0.00001  -0.00001   0.00000   1.89709
   A11        1.89669   0.00000  -0.00001   0.00000   0.00000   1.89669
   A12        1.99951   0.00000  -0.00001   0.00002   0.00001   1.99952
   A13        1.83921   0.00000   0.00001  -0.00001   0.00000   1.83922
   A14        1.91218   0.00000   0.00000  -0.00001  -0.00001   1.91217
   A15        1.91227   0.00000  -0.00001   0.00000  -0.00001   1.91226
   A16        1.93949   0.00000   0.00000   0.00000   0.00000   1.93950
   A17        1.93958   0.00000  -0.00001   0.00001   0.00000   1.93957
   A18        1.92566   0.00000  -0.00001   0.00000  -0.00001   1.92565
   A19        1.88500   0.00000   0.00001   0.00000   0.00001   1.88501
   A20        1.88603   0.00000   0.00001   0.00000   0.00000   1.88604
   A21        1.88618   0.00000   0.00000   0.00000   0.00000   1.88618
   A22        2.07539   0.00000  -0.00001  -0.00001  -0.00002   2.07537
   A23        1.96893   0.00000  -0.00003   0.00001  -0.00002   1.96891
   A24        1.95202   0.00000   0.00001  -0.00002  -0.00001   1.95201
   A25        1.90388   0.00000  -0.00001   0.00001   0.00000   1.90388
   A26        1.87107   0.00000   0.00001   0.00000   0.00002   1.87109
   A27        1.88458   0.00000   0.00001   0.00000   0.00001   1.88459
   A28        1.88014   0.00000   0.00001   0.00000   0.00001   1.88015
    D1       -2.06400   0.00000   0.00002  -0.00006  -0.00004  -2.06403
    D2        0.04251   0.00000   0.00001  -0.00005  -0.00004   0.04246
    D3        2.15485   0.00000   0.00001  -0.00006  -0.00005   2.15480
    D4        1.07756   0.00000   0.00000  -0.00006  -0.00006   1.07750
    D5       -3.09912   0.00000  -0.00001  -0.00005  -0.00006  -3.09919
    D6       -0.98678   0.00000  -0.00001  -0.00006  -0.00007  -0.98685
    D7       -1.00426   0.00000   0.00011   0.00000   0.00011  -1.00415
    D8        0.98887   0.00000   0.00012  -0.00001   0.00012   0.98898
    D9        3.13380   0.00000   0.00010   0.00001   0.00011   3.13391
   D10        2.13736   0.00000   0.00013   0.00000   0.00013   2.13749
   D11       -2.15269   0.00000   0.00014  -0.00001   0.00014  -2.15256
   D12       -0.00776   0.00000   0.00013   0.00001   0.00013  -0.00763
   D13        0.00113   0.00000   0.00002  -0.00002   0.00000   0.00112
   D14       -3.14051   0.00000   0.00000  -0.00002  -0.00002  -3.14053
   D15        1.05159   0.00000   0.00002   0.00000   0.00002   1.05162
   D16       -1.04803   0.00000   0.00002  -0.00001   0.00001  -1.04802
   D17       -3.13993   0.00000   0.00003  -0.00001   0.00002  -3.13991
   D18       -1.08537   0.00000   0.00001   0.00000   0.00001  -1.08535
   D19        3.09820   0.00000   0.00001   0.00000   0.00001   3.09820
   D20        1.00629   0.00000   0.00002   0.00000   0.00001   1.00631
   D21       -3.09508   0.00000   0.00000   0.00001   0.00002  -3.09507
   D22        1.08848   0.00000   0.00000   0.00001   0.00001   1.08849
   D23       -1.00342   0.00000   0.00001   0.00001   0.00002  -1.00341
   D24       -0.96549   0.00000  -0.00018   0.00012  -0.00006  -0.96555
   D25        1.14548   0.00000  -0.00017   0.00012  -0.00006   1.14543
   D26       -3.05970   0.00000  -0.00016   0.00011  -0.00005  -3.05975
         Item               Value     Threshold  Converged?
 Maximum Force            0.000009     0.000450     YES
 RMS     Force            0.000002     0.000300     YES
 Maximum Displacement     0.000232     0.001800     YES
 RMS     Displacement     0.000082     0.001200     YES
 Predicted change in Energy=-7.753933D-10
 Optimization completed.
    -- Stationary point found.
                           ----------------------------
                           !   Optimized Parameters   !
                           ! (Angstroms and Degrees)  !
 --------------------------                            --------------------------
 ! Name  Definition              Value          Derivative Info.                !
 --------------------------------------------------------------------------------
 ! R1    R(1,2)                  1.5227         -DE/DX =    0.0                 !
 ! R2    R(1,6)                  1.5211         -DE/DX =    0.0                 !
 ! R3    R(1,10)                 1.276          -DE/DX =    0.0                 !
 ! R4    R(2,3)                  1.0978         -DE/DX =    0.0                 !
 ! R5    R(2,4)                  1.0934         -DE/DX =    0.0                 !
 ! R6    R(2,5)                  1.0973         -DE/DX =    0.0                 !
 ! R7    R(6,7)                  1.1002         -DE/DX =    0.0                 !
 ! R8    R(6,8)                  1.1002         -DE/DX =    0.0                 !
 ! R9    R(6,9)                  1.5164         -DE/DX =    0.0                 !
 ! R10   R(9,15)                 1.095          -DE/DX =    0.0                 !
 ! R11   R(9,16)                 1.0949         -DE/DX =    0.0                 !
 ! R12   R(9,17)                 1.0945         -DE/DX =    0.0                 !
 ! R13   R(10,11)                1.4568         -DE/DX =    0.0                 !
 ! R14   R(11,12)                1.1005         -DE/DX =    0.0                 !
 ! R15   R(11,13)                1.1005         -DE/DX =    0.0                 !
 ! R16   R(11,14)                1.0938         -DE/DX =    0.0                 !
 ! A1    A(2,1,6)              114.7035         -DE/DX =    0.0                 !
 ! A2    A(2,1,10)             124.4538         -DE/DX =    0.0                 !
 ! A3    A(6,1,10)             120.8427         -DE/DX =    0.0                 !
 ! A4    A(1,2,3)              110.8021         -DE/DX =    0.0                 !
 ! A5    A(1,2,4)              112.0314         -DE/DX =    0.0                 !
 ! A6    A(1,2,5)              110.8863         -DE/DX =    0.0                 !
 ! A7    A(3,2,4)              108.0058         -DE/DX =    0.0                 !
 ! A8    A(3,2,5)              106.6875         -DE/DX =    0.0                 !
 ! A9    A(4,2,5)              108.2214         -DE/DX =    0.0                 !
 ! A10   A(1,6,7)              108.6949         -DE/DX =    0.0                 !
 ! A11   A(1,6,8)              108.6723         -DE/DX =    0.0                 !
 ! A12   A(1,6,9)              114.5632         -DE/DX =    0.0                 !
 ! A13   A(7,6,8)              105.3793         -DE/DX =    0.0                 !
 ! A14   A(7,6,9)              109.56           -DE/DX =    0.0                 !
 ! A15   A(8,6,9)              109.5648         -DE/DX =    0.0                 !
 ! A16   A(6,9,15)             111.1247         -DE/DX =    0.0                 !
 ! A17   A(6,9,16)             111.1295         -DE/DX =    0.0                 !
 ! A18   A(6,9,17)             110.3322         -DE/DX =    0.0                 !
 ! A19   A(15,9,16)            108.0026         -DE/DX =    0.0                 !
 ! A20   A(15,9,17)            108.0617         -DE/DX =    0.0                 !
 ! A21   A(16,9,17)            108.0702         -DE/DX =    0.0                 !
 ! A22   A(1,10,11)            118.9111         -DE/DX =    0.0                 !
 ! A23   A(10,11,12)           112.8114         -DE/DX =    0.0                 !
 ! A24   A(10,11,13)           111.8426         -DE/DX =    0.0                 !
 ! A25   A(10,11,14)           109.0845         -DE/DX =    0.0                 !
 ! A26   A(12,11,13)           107.2045         -DE/DX =    0.0                 !
 ! A27   A(12,11,14)           107.9783         -DE/DX =    0.0                 !
 ! A28   A(13,11,14)           107.7242         -DE/DX =    0.0                 !
 ! D1    D(6,1,2,3)           -118.2584         -DE/DX =    0.0                 !
 ! D2    D(6,1,2,4)              2.4355         -DE/DX =    0.0                 !
 ! D3    D(6,1,2,5)            123.4638         -DE/DX =    0.0                 !
 ! D4    D(10,1,2,3)            61.7396         -DE/DX =    0.0                 !
 ! D5    D(10,1,2,4)          -177.5665         -DE/DX =    0.0                 !
 ! D6    D(10,1,2,5)           -56.5383         -DE/DX =    0.0                 !
 ! D7    D(2,1,6,7)            -57.54           -DE/DX =    0.0                 !
 ! D8    D(2,1,6,8)             56.6578         -DE/DX =    0.0                 !
 ! D9    D(2,1,6,9)            179.5534         -DE/DX =    0.0                 !
 ! D10   D(10,1,6,7)           122.4619         -DE/DX =    0.0                 !
 ! D11   D(10,1,6,8)          -123.3402         -DE/DX =    0.0                 !
 ! D12   D(10,1,6,9)            -0.4446         -DE/DX =    0.0                 !
 ! D13   D(2,1,10,11)            0.0645         -DE/DX =    0.0                 !
 ! D14   D(6,1,10,11)         -179.9377         -DE/DX =    0.0                 !
 ! D15   D(1,6,9,15)            60.2519         -DE/DX =    0.0                 !
 ! D16   D(1,6,9,16)           -60.0477         -DE/DX =    0.0                 !
 ! D17   D(1,6,9,17)          -179.9048         -DE/DX =    0.0                 !
 ! D18   D(7,6,9,15)           -62.1869         -DE/DX =    0.0                 !
 ! D19   D(7,6,9,16)           177.5135         -DE/DX =    0.0                 !
 ! D20   D(7,6,9,17)            57.6564         -DE/DX =    0.0                 !
 ! D21   D(8,6,9,15)          -177.3353         -DE/DX =    0.0                 !
 ! D22   D(8,6,9,16)            62.3651         -DE/DX =    0.0                 !
 ! D23   D(8,6,9,17)           -57.492          -DE/DX =    0.0                 !
 ! D24   D(1,10,11,12)         -55.3185         -DE/DX =    0.0                 !
 ! D25   D(1,10,11,13)          65.6313         -DE/DX =    0.0                 !
 ! D26   D(1,10,11,14)        -175.3079         -DE/DX =    0.0                 !
 --------------------------------------------------------------------------------
 GradGradGradGradGradGradGradGradGradGradGradGradGradGradGradGradGradGrad

 Largest change from initial coordinates is atom   14       0.277 Angstoms.
 Leave Link  103 at Tue Feb  7 16:49:25 2017, MaxMem=  1048576000 cpu:         0.1
 (Enter /mnt/data/applications/G09/g09/l202.exe)
                          Input orientation:                          
 ---------------------------------------------------------------------
 Center     Atomic      Atomic             Coordinates (Angstroms)
 Number     Number       Type             X           Y           Z
 ---------------------------------------------------------------------
      1          6    10061002       -2.217071    0.528795    0.005343
      2          6    10061003       -3.739389    0.511375    0.035880
      3          1    10011000       -4.152686    1.120076   -0.778912
      4          1    10011000       -4.140007   -0.501218   -0.062009
      5          1    10011000       -4.116810    0.940618    0.972531
      6          6    10061003       -1.569955   -0.830819   -0.210353
      7          1    10011000       -1.907055   -1.511987    0.585101
      8          1    10011000       -1.957161   -1.260738   -1.146157
      9          6    10061003       -0.054232   -0.808240   -0.250853
     10          7    10071002       -1.504165    1.577817    0.145353
     11          6    10061003       -2.167959    2.858180    0.351063
     12          1    10011000       -2.894781    3.094092   -0.440944
     13          1    10011000       -2.708719    2.889801    1.309071
     14          1    10011000       -1.416014    3.652435    0.366739
     15          1    10011000        0.360013   -0.427974    0.688683
     16          1    10011000        0.309447   -0.170908   -1.063538
     17          1    10011000        0.337019   -1.817903   -0.410176
 ---------------------------------------------------------------------
                    Distance matrix (angstroms):
                    1          2          3          4          5
     1  C    0.000000
     2  C    1.522723   0.000000
     3  H    2.170547   1.097825   0.000000
     4  H    2.182463   1.093353   1.772767   0.000000
     5  H    2.171188   1.097274   1.760978   1.774740   0.000000
     6  C    1.521130   2.562920   3.286298   2.595344   3.320192
     7  H    2.144067   2.784436   3.719025   2.535050   3.323912
     8  H    2.143813   2.777396   3.259367   2.552853   3.741508
     9  C    2.555616   3.924790   4.560107   4.101644   4.589086
    10  N    1.276043   2.479014   2.842263   3.363487   2.813567
    11  C    2.355413   2.841871   2.870016   3.917289   2.803798
    12  H    2.690578   2.758832   2.365013   3.823667   2.851090
    13  H    2.741491   2.887941   3.094615   3.927780   2.428022
    14  H    3.244908   3.920943   3.900606   4.985658   3.874949
    15  H    2.832618   4.256010   4.991468   4.562794   4.689943
    16  H    2.831146   4.250565   4.653846   4.572724   4.997281
    17  H    3.493283   4.716100   5.378210   4.679599   5.418294
                    6          7          8          9         10
     6  C    0.000000
     7  H    1.100170   0.000000
     8  H    1.100221   1.750112   0.000000
     9  C    1.516432   2.151055   2.151154   0.000000
    10  N    2.435649   3.146838   3.151285   2.820027   0.000000
    11  C    3.779089   4.384200   4.387664   4.274667   1.456801
    12  H    4.148887   4.821238   4.510100   4.830429   2.139310
    13  H    4.177134   4.532388   4.880569   4.811982   2.127556
    14  H    4.522864   5.192308   5.169232   4.704624   2.088258
    15  H    2.166871   2.515038   3.070738   1.094956   2.791696
    16  H    2.166924   3.070731   2.516361   1.094948   2.794395
    17  H    2.156575   2.473870   2.472926   1.094478   3.902497
                   11         12         13         14         15
    11  C    0.000000
    12  H    1.100545   0.000000
    13  H    1.100545   1.771696   0.000000
    14  H    1.093849   1.775063   1.772198   0.000000
    15  H    4.159741   4.926935   4.561758   4.461800   0.000000
    16  H    4.161011   4.616809   4.909841   4.431801   1.771699
    17  H    5.359119   5.879896   5.864709   5.796664   1.771982
                   16         17
    16  H    0.000000
    17  H    1.772071   0.000000
 Symmetry turned off by external request.
 Stoichiometry    C5H11N
 Framework group  C1[X(C5H11N)]
 Deg. of freedom    45
 Full point group                 C1      NOp   1
 Rotational constants (GHZ):      5.3727081      2.4956515      1.7793229
 Leave Link  202 at Tue Feb  7 16:49:25 2017, MaxMem=  1048576000 cpu:         0.0
 (Enter /mnt/data/applications/G09/g09/l9999.exe)
 1\1\GINC-KIMIK2086\FOpt\ONIOM(B3LYP/6-31G(d):External='./sictwo_files/
 sictwo_g09d01')\Mixed\C5H11N1\IFUNES\07-Feb-2017\0\\#p opt=nomicro oni
 om(B3LYP/6-31G*:external="./sictwo_files/sictwo_g09d01") geom=connecti
 vity nosymm scf(maxcyc=100)\\ONIOM(QM:MM) OPT FREQ with SICTWO V1.0\\0
 ,1\C,-2.2170713372,0.5287948419,0.0053425528\C,-3.7393886384,0.5113746
 117,0.0358803939\H,-4.1526861565,1.1200758866,-0.7789122616\H,-4.14000
 67666,-0.5012176829,-0.0620094123\H,-4.1168097162,0.9406180693,0.97253
 05098\C,-1.5699550754,-0.8308194775,-0.2103533454\H,-1.9070554598,-1.5
 119873953,0.5851012196\H,-1.9571614078,-1.2607382985,-1.1461565855\C,-
 0.0542320108,-0.8082395856,-0.2508534251\N,-1.5041647038,1.5778170502,
 0.1453527321\C,-2.1679590493,2.8581802859,0.3510633077\H,-2.8947808638
 ,3.094091841,-0.4409437511\H,-2.7087190119,2.8898008759,1.3090710338\H
 ,-1.4160143975,3.6524347646,0.3667385974\H,0.3600134982,-0.4279743806,
 0.688682708\H,0.3094473117,-0.1709076758,-1.0635380624\H,0.3370194052,
 -1.8179028612,-0.4101759716\\Version=EM64L-G09RevD.01\HF=0.0262472\RMS
 D=2.010e-09\RMSF=4.237e-06\Dipole=-0.7527951,-0.2071576,-0.0108262\PG=
 C01 [X(C5H11N1)]\\@


 GETTING A SIMPLE ANSWER FROM A PROFESSOR IS LIKE
 GETTING A THIMBLE OF WATER FROM A FIRE HYDRANT.
     -- PROF. LEN SHAPIRO, NDSU
 Job cpu time:       0 days  0 hours 18 minutes 14.2 seconds.
 File lengths (MBytes):  RWF=      7 Int=      0 D2E=      0 Chk=      3 Scr=      1
 Normal termination of Gaussian 09 at Tue Feb  7 16:49:25 2017.
