 Entering Gaussian System, Link 0=g09
 Initial command:
 /mnt/data/applications/G09/g09/l1.exe "/scratch/Gau-12660.inp" -scrdir="/scratch/"
 Entering Link 1 = /mnt/data/applications/G09/g09/l1.exe PID=     12661.
  
 Copyright (c) 1988,1990,1992,1993,1995,1998,2003,2009,2013,
            Gaussian, Inc.  All Rights Reserved.
  
 This is part of the Gaussian(R) 09 program.  It is based on
 the Gaussian(R) 03 system (copyright 2003, Gaussian, Inc.),
 the Gaussian(R) 98 system (copyright 1998, Gaussian, Inc.),
 the Gaussian(R) 94 system (copyright 1995, Gaussian, Inc.),
 the Gaussian 92(TM) system (copyright 1992, Gaussian, Inc.),
 the Gaussian 90(TM) system (copyright 1990, Gaussian, Inc.),
 the Gaussian 88(TM) system (copyright 1988, Gaussian, Inc.),
 the Gaussian 86(TM) system (copyright 1986, Carnegie Mellon
 University), and the Gaussian 82(TM) system (copyright 1983,
 Carnegie Mellon University). Gaussian is a federally registered
 trademark of Gaussian, Inc.
  
 This software contains proprietary and confidential information,
 including trade secrets, belonging to Gaussian, Inc.
  
 This software is provided under written license and may be
 used, copied, transmitted, or stored only in accord with that
 written license.
  
 The following legend is applicable only to US Government
 contracts under FAR:
  
                    RESTRICTED RIGHTS LEGEND
  
 Use, reproduction and disclosure by the US Government is
 subject to restrictions as set forth in subparagraphs (a)
 and (c) of the Commercial Computer Software - Restricted
 Rights clause in FAR 52.227-19.
  
 Gaussian, Inc.
 340 Quinnipiac St., Bldg. 40, Wallingford CT 06492
  
  
 ---------------------------------------------------------------
 Warning -- This program may not be used in any manner that
 competes with the business of Gaussian, Inc. or will provide
 assistance to any competitor of Gaussian, Inc.  The licensee
 of this program is prohibited from giving any competitor of
 Gaussian, Inc. access to this program.  By using this program,
 the user acknowledges that Gaussian, Inc. is engaged in the
 business of creating and licensing software in the field of
 computational chemistry and represents and warrants to the
 licensee that it is not a competitor of Gaussian, Inc. and that
 it will not use this program in any manner prohibited above.
 ---------------------------------------------------------------
  

 Cite this work as:
 Gaussian 09, Revision D.01,
 M. J. Frisch, G. W. Trucks, H. B. Schlegel, G. E. Scuseria, 
 M. A. Robb, J. R. Cheeseman, G. Scalmani, V. Barone, B. Mennucci, 
 G. A. Petersson, H. Nakatsuji, M. Caricato, X. Li, H. P. Hratchian, 
 A. F. Izmaylov, J. Bloino, G. Zheng, J. L. Sonnenberg, M. Hada, 
 M. Ehara, K. Toyota, R. Fukuda, J. Hasegawa, M. Ishida, T. Nakajima, 
 Y. Honda, O. Kitao, H. Nakai, T. Vreven, J. A. Montgomery, Jr., 
 J. E. Peralta, F. Ogliaro, M. Bearpark, J. J. Heyd, E. Brothers, 
 K. N. Kudin, V. N. Staroverov, T. Keith, R. Kobayashi, J. Normand, 
 K. Raghavachari, A. Rendell, J. C. Burant, S. S. Iyengar, J. Tomasi, 
 M. Cossi, N. Rega, J. M. Millam, M. Klene, J. E. Knox, J. B. Cross, 
 V. Bakken, C. Adamo, J. Jaramillo, R. Gomperts, R. E. Stratmann, 
 O. Yazyev, A. J. Austin, R. Cammi, C. Pomelli, J. W. Ochterski, 
 R. L. Martin, K. Morokuma, V. G. Zakrzewski, G. A. Voth, 
 P. Salvador, J. J. Dannenberg, S. Dapprich, A. D. Daniels, 
 O. Farkas, J. B. Foresman, J. V. Ortiz, J. Cioslowski, 
 and D. J. Fox, Gaussian, Inc., Wallingford CT, 2013.
 
 ******************************************
 Gaussian 09:  EM64L-G09RevD.01 24-Apr-2013
                 7-Feb-2017 
 ******************************************
 %nprocshared=8
 Will use up to    8 processors via shared memory.
 %mem=8000MB
 %chk=F_4
 ----------------------------------------------------------------------
 #p opt=nomicro oniom(B3LYP/6-31G*:external="./sictwo_files/sictwo_g09d
 01") geom=connectivity nosymm scf(maxcyc=100)
 ----------------------------------------------------------------------
 1/14=-1,18=20,19=15,26=1,38=1,52=2,57=2/1,3;
 2/9=110,12=2,15=1,17=6,18=5,40=1/2;
 1/14=-1,18=20,19=15,26=1,38=1,52=2,53=3172/20;
 3/11=9,16=1,25=1,30=1,41=9900000,43=2,71=1/1;
 4/20=17,22=1,23=100,24=3,113=1,114=1/2;
 6/7=2,8=2,9=2,10=2/1;
 7/7=1,30=1,33=-1,44=-1/16;
 1/14=-1,18=20,19=15,26=1,52=2,53=2032/20;
 3/5=1,6=6,7=1,11=2,16=1,25=1,30=1,71=1,74=-5/1,2,3;
 4//1;
 5/5=2,7=100,38=5/2;
 6/7=2,8=2,9=2,10=2,28=1/1;
 7/7=1,30=1,33=-1/1,2,3,16;
 1/14=-1,18=20,19=15,26=1,52=2,53=1022/20;
 3/11=9,16=1,25=1,30=1,41=9900000,43=2,71=1/1;
 4/20=17,22=1,23=100,24=3,113=1,114=2/2;
 6/7=2,8=2,9=2,10=2/1;
 7/7=1,30=1,33=-1,44=-1/16;
 1/14=-1,18=20,19=15,26=1,52=2,53=3015/20;
 7/9=1,44=-1/16;
 1/14=-1,18=20,19=15,26=1,52=2/3(2);
 2/9=110,15=1/2;
 99//99;
 2/9=110,15=1/2;
 1/14=-1,18=20,19=15,26=1,52=2,53=3173/20;
 3/11=9,16=1,25=1,30=1,41=9900000,43=2,71=1/1;
 4/16=2,20=17,22=1,23=100,24=3,113=1,114=1/2;
 7/7=1,30=1,33=-1,44=-1/16;
 1/14=-1,18=20,19=15,26=1,52=2,53=2033/20;
 3/5=1,6=6,7=1,11=2,16=1,25=1,30=1,71=1,74=-5/1,2,3;
 4/5=5,16=3,69=1/1;
 5/5=2,7=100,38=5/2;
 7/7=1,30=1,33=-1/1,2,3,16;
 1/14=-1,18=20,19=15,26=1,52=2,53=1023/20;
 3/11=9,16=1,25=1,30=1,41=9900000,43=2,71=1/1;
 4/16=2,20=17,22=1,23=100,24=3,113=1,114=2/2;
 7/7=1,30=1,33=-1,44=-1/16;
 1/14=-1,18=20,19=15,26=1,52=2,53=3015/20;
 7/9=1,44=-1/16;
 1/14=-1,18=20,19=15,26=1,52=2/3(-16);
 2/9=110,15=1/2;
 99//99;
 Leave Link    1 at Tue Feb  7 16:43:47 2017, MaxMem=  1048576000 cpu:         0.8
 (Enter /mnt/data/applications/G09/g09/l101.exe)
 --------------------------------------
 ONIOM(QM:MM) OPT FREQ with SICTWO V1.0
 --------------------------------------
 Symbolic Z-matrix:
 Charge =  0 Multiplicity = 1 for low   level calculation on real  system.
 Charge =  0 Multiplicity = 1 for high  level calculation on model system.
 Charge =  0 Multiplicity = 1 for low   level calculation on model system.
 C-C_R                0    -1.9357    0.18087   0.48372  H 
 C-C_R                0    -0.53395   0.18087   0.48372  H 
 C-C_R                0    -0.10996   1.55166   0.48372  H 
 C-C_R                0    -1.26701   2.34312   0.48362  H 
 H-H_                 0    -2.63729  -0.65237   0.48382  H 
 H-H_                 0     0.11042  -0.69184   0.48375  H 
 H-H_                 0     0.91461   1.90815   0.4837   H 
 O-O_R                0    -2.37543   1.50137   0.48372  H 
 C-C_3                0    -1.42101   3.8754    0.48341  L    H-H_     4     0.        0. 
 H-H_                 0    -1.95848   4.17972  -0.39032  L 
 C-C_3                0    -0.0277    4.53135   0.48345  L 
 H-H_                 0     0.5099    4.22683  -0.39014  L 
 H-H_                 0    -0.1347    5.59598   0.48334  L 
 H-H_                 0     0.50978   4.22699   1.35717  L 
 C-C_3                0    -2.19478   4.31372   1.7407   L 
 H-H_                 0    -2.15158   5.37887   1.83281  L 
 H-H_                 0    -3.21558   4.00404   1.6573   L 
 H-H_                 0    -1.75478   3.8628    2.60555  L 
 
 NAtoms=     18 NQM=       18 NQMF=       0 NMMI=      0 NMMIF=      0
                NMic=       0 NMicF=      0.
                    Isotopes and Nuclear Properties:
 (Nuclear quadrupole moments (NQMom) in fm**2, nuclear magnetic moments (NMagM)
  in nuclear magnetons)

  Atom         1           2           3           4           5           6           7           8           9          10
 IAtWgt=          12          12          12          12           1           1           1          16          12           1
 AtmWgt=  12.0000000  12.0000000  12.0000000  12.0000000   1.0078250   1.0078250   1.0078250  15.9949146  12.0000000   1.0078250
 NucSpn=           0           0           0           0           1           1           1           0           0           1
 AtZEff=   0.0000000   0.0000000   0.0000000   0.0000000   0.0000000   0.0000000   0.0000000   0.0000000   0.0000000   0.0000000
 NQMom=    0.0000000   0.0000000   0.0000000   0.0000000   0.0000000   0.0000000   0.0000000   0.0000000   0.0000000   0.0000000
 NMagM=    0.0000000   0.0000000   0.0000000   0.0000000   2.7928460   2.7928460   2.7928460   0.0000000   0.0000000   2.7928460
 AtZNuc=   6.0000000   6.0000000   6.0000000   6.0000000   1.0000000   1.0000000   1.0000000   8.0000000   6.0000000   1.0000000

  Atom        11          12          13          14          15          16          17          18
 IAtWgt=          12           1           1           1          12           1           1           1
 AtmWgt=  12.0000000   1.0078250   1.0078250   1.0078250  12.0000000   1.0078250   1.0078250   1.0078250
 NucSpn=           0           1           1           1           0           1           1           1
 AtZEff=   0.0000000   0.0000000   0.0000000   0.0000000   0.0000000   0.0000000   0.0000000   0.0000000
 NQMom=    0.0000000   0.0000000   0.0000000   0.0000000   0.0000000   0.0000000   0.0000000   0.0000000
 NMagM=    0.0000000   2.7928460   2.7928460   2.7928460   0.0000000   2.7928460   2.7928460   2.7928460
 AtZNuc=   6.0000000   1.0000000   1.0000000   1.0000000   6.0000000   1.0000000   1.0000000   1.0000000
 Leave Link  101 at Tue Feb  7 16:43:48 2017, MaxMem=  1048576000 cpu:         3.6
 (Enter /mnt/data/applications/G09/g09/l103.exe)

 GradGradGradGradGradGradGradGradGradGradGradGradGradGradGradGradGradGrad
 Berny optimization.
 Initialization pass.
                           ----------------------------
                           !    Initial Parameters    !
                           ! (Angstroms and Degrees)  !
 --------------------------                            --------------------------
 ! Name  Definition              Value          Derivative Info.                !
 --------------------------------------------------------------------------------
 ! R1    R(1,2)                  1.4018         estimate D2E/DX2                !
 ! R2    R(1,5)                  1.0893         estimate D2E/DX2                !
 ! R3    R(1,8)                  1.3918         estimate D2E/DX2                !
 ! R4    R(2,3)                  1.4349         estimate D2E/DX2                !
 ! R5    R(2,6)                  1.0848         estimate D2E/DX2                !
 ! R6    R(3,4)                  1.4018         estimate D2E/DX2                !
 ! R7    R(3,7)                  1.0848         estimate D2E/DX2                !
 ! R8    R(4,8)                  1.3918         estimate D2E/DX2                !
 ! R9    R(4,9)                  1.54           estimate D2E/DX2                !
 ! R10   R(9,10)                 1.07           estimate D2E/DX2                !
 ! R11   R(9,11)                 1.54           estimate D2E/DX2                !
 ! R12   R(9,15)                 1.54           estimate D2E/DX2                !
 ! R13   R(11,12)                1.07           estimate D2E/DX2                !
 ! R14   R(11,13)                1.07           estimate D2E/DX2                !
 ! R15   R(11,14)                1.07           estimate D2E/DX2                !
 ! R16   R(15,16)                1.07           estimate D2E/DX2                !
 ! R17   R(15,17)                1.07           estimate D2E/DX2                !
 ! R18   R(15,18)                1.07           estimate D2E/DX2                !
 ! A1    A(2,1,5)              130.0976         estimate D2E/DX2                !
 ! A2    A(2,1,8)              108.4177         estimate D2E/DX2                !
 ! A3    A(5,1,8)              121.4847         estimate D2E/DX2                !
 ! A4    A(1,2,3)              107.1873         estimate D2E/DX2                !
 ! A5    A(1,2,6)              126.4408         estimate D2E/DX2                !
 ! A6    A(3,2,6)              126.372          estimate D2E/DX2                !
 ! A7    A(2,3,4)              107.1858         estimate D2E/DX2                !
 ! A8    A(2,3,7)              126.3724         estimate D2E/DX2                !
 ! A9    A(4,3,7)              126.4419         estimate D2E/DX2                !
 ! A10   A(3,4,8)              108.4137         estimate D2E/DX2                !
 ! A11   A(3,4,9)              130.1121         estimate D2E/DX2                !
 ! A12   A(8,4,9)              121.4742         estimate D2E/DX2                !
 ! A13   A(1,8,4)              108.7956         estimate D2E/DX2                !
 ! A14   A(4,9,10)             109.4712         estimate D2E/DX2                !
 ! A15   A(4,9,11)             109.4712         estimate D2E/DX2                !
 ! A16   A(4,9,15)             109.4712         estimate D2E/DX2                !
 ! A17   A(10,9,11)            109.4712         estimate D2E/DX2                !
 ! A18   A(10,9,15)            109.4713         estimate D2E/DX2                !
 ! A19   A(11,9,15)            109.4712         estimate D2E/DX2                !
 ! A20   A(9,11,12)            109.4712         estimate D2E/DX2                !
 ! A21   A(9,11,13)            109.4712         estimate D2E/DX2                !
 ! A22   A(9,11,14)            109.4712         estimate D2E/DX2                !
 ! A23   A(12,11,13)           109.4713         estimate D2E/DX2                !
 ! A24   A(12,11,14)           109.4712         estimate D2E/DX2                !
 ! A25   A(13,11,14)           109.4712         estimate D2E/DX2                !
 ! A26   A(9,15,16)            109.4712         estimate D2E/DX2                !
 ! A27   A(9,15,17)            109.4712         estimate D2E/DX2                !
 ! A28   A(9,15,18)            109.4712         estimate D2E/DX2                !
 ! A29   A(16,15,17)           109.4713         estimate D2E/DX2                !
 ! A30   A(16,15,18)           109.4712         estimate D2E/DX2                !
 ! A31   A(17,15,18)           109.4712         estimate D2E/DX2                !
 ! D1    D(5,1,2,3)           -179.9933         estimate D2E/DX2                !
 ! D2    D(5,1,2,6)              0.0051         estimate D2E/DX2                !
 ! D3    D(8,1,2,3)              0.0004         estimate D2E/DX2                !
 ! D4    D(8,1,2,6)            179.9987         estimate D2E/DX2                !
 ! D5    D(2,1,8,4)              0.0039         estimate D2E/DX2                !
 ! D6    D(5,1,8,4)            179.9982         estimate D2E/DX2                !
 ! D7    D(1,2,3,4)             -0.0044         estimate D2E/DX2                !
 ! D8    D(1,2,3,7)           -179.9984         estimate D2E/DX2                !
 ! D9    D(6,2,3,4)            179.9972         estimate D2E/DX2                !
 ! D10   D(6,2,3,7)              0.0033         estimate D2E/DX2                !
 ! D11   D(2,3,4,8)              0.0069         estimate D2E/DX2                !
 ! D12   D(2,3,4,9)           -179.9922         estimate D2E/DX2                !
 ! D13   D(7,3,4,8)           -179.9992         estimate D2E/DX2                !
 ! D14   D(7,3,4,9)              0.0017         estimate D2E/DX2                !
 ! D15   D(3,4,8,1)             -0.0067         estimate D2E/DX2                !
 ! D16   D(9,4,8,1)            179.9924         estimate D2E/DX2                !
 ! D17   D(3,4,9,10)           119.9949         estimate D2E/DX2                !
 ! D18   D(3,4,9,11)            -0.0051         estimate D2E/DX2                !
 ! D19   D(3,4,9,15)          -120.0051         estimate D2E/DX2                !
 ! D20   D(8,4,9,10)           -60.004          estimate D2E/DX2                !
 ! D21   D(8,4,9,11)           179.996          estimate D2E/DX2                !
 ! D22   D(8,4,9,15)            59.996          estimate D2E/DX2                !
 ! D23   D(4,9,11,12)           60.0021         estimate D2E/DX2                !
 ! D24   D(4,9,11,13)         -179.9979         estimate D2E/DX2                !
 ! D25   D(4,9,11,14)          -59.9979         estimate D2E/DX2                !
 ! D26   D(10,9,11,12)         -59.9979         estimate D2E/DX2                !
 ! D27   D(10,9,11,13)          60.0021         estimate D2E/DX2                !
 ! D28   D(10,9,11,14)        -179.9979         estimate D2E/DX2                !
 ! D29   D(15,9,11,12)        -179.998          estimate D2E/DX2                !
 ! D30   D(15,9,11,13)         -59.998          estimate D2E/DX2                !
 ! D31   D(15,9,11,14)          60.002          estimate D2E/DX2                !
 ! D32   D(4,9,15,16)          169.9761         estimate D2E/DX2                !
 ! D33   D(4,9,15,17)          -70.0239         estimate D2E/DX2                !
 ! D34   D(4,9,15,18)           49.9761         estimate D2E/DX2                !
 ! D35   D(10,9,15,16)         -70.0239         estimate D2E/DX2                !
 ! D36   D(10,9,15,17)          49.9761         estimate D2E/DX2                !
 ! D37   D(10,9,15,18)         169.9761         estimate D2E/DX2                !
 ! D38   D(11,9,15,16)          49.9761         estimate D2E/DX2                !
 ! D39   D(11,9,15,17)         169.9761         estimate D2E/DX2                !
 ! D40   D(11,9,15,18)         -70.0239         estimate D2E/DX2                !
 --------------------------------------------------------------------------------
 Trust Radius=3.00D-01 FncErr=1.00D-07 GrdErr=1.00D-07
 Number of steps in this run=     99 maximum allowed number of steps=    108.
 GradGradGradGradGradGradGradGradGradGradGradGradGradGradGradGradGradGrad

 Leave Link  103 at Tue Feb  7 16:43:48 2017, MaxMem=  1048576000 cpu:         0.1
 (Enter /mnt/data/applications/G09/g09/l202.exe)
                          Input orientation:                          
 ---------------------------------------------------------------------
 Center     Atomic      Atomic             Coordinates (Angstroms)
 Number     Number       Type             X           Y           Z
 ---------------------------------------------------------------------
      1          6    10061000       -1.935705    0.180867    0.483724
      2          6    10061000       -0.533955    0.180867    0.483724
      3          6    10061000       -0.109957    1.551663    0.483724
      4          6    10061000       -1.267014    2.343116    0.483620
      5          1    10011000       -2.637293   -0.652366    0.483822
      6          1    10011000        0.110418   -0.691839    0.483749
      7          1    10011000        0.914606    1.908155    0.483699
      8          8    10081000       -2.375432    1.501375    0.483715
      9          6    10061003       -1.421012    3.875397    0.483412
     10          1    10011000       -1.958478    4.179725   -0.390324
     11          6    10061003       -0.027697    4.531348    0.483448
     12          1    10011000        0.509905    4.226826   -0.390137
     13          1    10011000       -0.134696    5.595985    0.483340
     14          1    10011000        0.509783    4.226992    1.357165
     15          6    10061003       -2.194776    4.313721    1.740696
     16          1    10011000       -2.151580    5.378873    1.832805
     17          1    10011000       -3.215581    4.004040    1.657297
     18          1    10011000       -1.754783    3.862799    2.605551
 ---------------------------------------------------------------------
                    Distance matrix (angstroms):
                    1          2          3          4          5
     1  C    0.000000
     2  C    1.401750   0.000000
     3  C    2.283076   1.434871   0.000000
     4  C    2.263287   2.283133   1.401848   0.000000
     5  H    1.089267   2.262368   3.353382   3.294021   0.000000
     6  H    2.224463   1.084819   2.254300   3.332907   2.747995
     7  H    3.332836   2.254297   1.084811   2.224558   4.378613
     8  O    1.391798   2.266005   2.266033   1.391804   2.169602
     9  C    3.730209   3.799529   2.668071   1.540000   4.688281
    10  H    4.093329   4.334062   3.329820   2.148263   4.957219
    11  C    4.750493   4.379839   2.980821   2.514810   5.803524
    12  H    4.807747   4.268848   2.881729   2.732994   5.871557
    13  H    5.706762   5.429817   4.044398   3.444314   6.730890
    14  H    4.807748   4.268889   2.881729   2.732961   5.871537
    15  C    4.327537   4.628043   3.681768   2.514809   5.141748
    16  H    5.374560   5.608565   4.542663   3.437816   6.199316
    17  H    4.199049   4.815085   4.127509   2.816576   4.836691
    18  H    4.253411   4.421447   3.542449   2.655173   5.066287
                    6          7          8          9         10
     6  H    0.000000
     7  H    2.721523   0.000000
     8  O    3.315062   3.315090   0.000000
     9  C    4.817149   3.053711   2.558690   0.000000
    10  H    5.364370   3.765443   2.848043   1.070000   0.000000
    11  C    5.225013   2.787307   3.833093   1.540000   2.148263
    12  H    5.011640   2.510699   4.064095   2.148263   2.468833
    13  H    6.292600   3.834205   4.667625   2.148263   2.468859
    14  H    5.011711   2.510743   4.064034   2.148263   3.024610
    15  C    5.652386   4.127353   3.085762   1.540000   2.148263
    16  H    6.617412   4.823637   4.111587   2.148263   2.533288
    17  H    5.872884   4.777919   2.889027   2.148263   2.409133
    18  H    5.359640   3.930461   3.234766   2.148263   3.019470
                   11         12         13         14         15
    11  C    0.000000
    12  H    1.070000   0.000000
    13  H    1.070000   1.747303   0.000000
    14  H    1.070000   1.747303   1.747303   0.000000
    15  C    2.514809   3.444314   2.732961   2.732994   0.000000
    16  H    2.655173   3.654064   2.436394   2.938693   1.070000
    17  H    3.437816   4.256861   3.661190   3.744079   1.070000
    18  H    2.816577   3.772993   3.183142   2.611391   1.070000
                   16         17         18
    16  H    0.000000
    17  H    1.747303   0.000000
    18  H    1.747303   1.747303   0.000000
 Symmetry turned off by external request.
 Stoichiometry    C7H10O
 Framework group  C1[X(C7H10O)]
 Deg. of freedom    48
 Full point group                 C1      NOp   1
 Rotational constants (GHZ):      4.2495449      1.4913898      1.1895783
 Leave Link  202 at Tue Feb  7 16:43:48 2017, MaxMem=  1048576000 cpu:         0.0
 (Enter /mnt/data/applications/G09/g09/l120.exe)
 ONIOM: Cut between C /H     9 and C     4 factor= 0.723886 0.723886
 ONIOM: saving gridpoint 17
 ONIOM: generating point  3 -- low level on real system.
 Leave Link  120 at Tue Feb  7 16:43:48 2017, MaxMem=  1048576000 cpu:         0.0
 (Enter /mnt/data/applications/G09/g09/l301.exe)
 Standard basis: STO-3G (5D, 7F)
 Ernie: Thresh=  0.10000D-02 Tol=  0.10000D-05 Strict=F.
    50 basis functions,   150 primitive gaussians,    50 cartesian basis functions
    30 alpha electrons       30 beta electrons
       nuclear repulsion energy       364.1061599306 Hartrees.
 IExCor=    0 DFT=F Ex=HF Corr=None ExCW=0 ScaHFX=  1.000000
 ScaDFX=  1.000000  1.000000  1.000000  1.000000 ScalE2=  1.000000  1.000000
 IRadAn=      0 IRanWt=     -1 IRanGd=            0 ICorTp=0 IEmpDi=  4
 NAtoms=   18 NActive=   18 NUniq=   18 SFac= 1.00D+00 NAtFMM=   60 NAOKFM=F Big=F
 Integral buffers will be    131072 words long.
 Raffenetti 1 integral format.
 Two-electron integral symmetry is turned off.
 Leave Link  301 at Tue Feb  7 16:43:48 2017, MaxMem=  1048576000 cpu:         0.3
 (Enter /mnt/data/applications/G09/g09/l402.exe)
 External calculation of energy and first derivatives.
 Running external command "./sictwo_files/sictwo_g09d01 R"
         input file       "/scratch/Gau-12661.EIn"
         output file      "/scratch/Gau-12661.EOu"
         message file     "/scratch/Gau-12661.EMs"
         fchk file        "/scratch/Gau-12661.EFC"
         mat. el file     "/scratch/Gau-12661.EUF"

---------------------------- SICTWO Version 1.0 STARTED -----------------------------

MM calculations started
MM calculations finished ....
Information recovery

---------------------------- SICTWO Version 1.0 FINISHED -----------------------------

 Recovered energy= 0.244059993150E-01 dipole=      0.719584097347     -0.048785362532      0.000000000000
 Energy=    2.440599931E-02 NIter=   0.
 Dipole moment=       0.719584      -0.048785       0.000000
 Leave Link  402 at Tue Feb  7 16:43:51 2017, MaxMem=  1048576000 cpu:        23.0
 (Enter /mnt/data/applications/G09/g09/l601.exe)
 Leave Link  601 at Tue Feb  7 16:43:51 2017, MaxMem=  1048576000 cpu:         0.2
 (Enter /mnt/data/applications/G09/g09/l716.exe)
 Dipole        = 7.19584097D-01-4.87853625D-02 0.00000000D+00
 Cartesian Forces:  Max     0.031035944 RMS     0.012202119
 Leave Link  716 at Tue Feb  7 16:43:51 2017, MaxMem=  1048576000 cpu:         0.2
 (Enter /mnt/data/applications/G09/g09/l120.exe)
 SvSCFP did not find density file   528.
 ONIOM: saving gridpoint  3
 ONIOM: restoring gridpoint 17
 ONIOM: generating point  2 -- high level on model system.
 Leave Link  120 at Tue Feb  7 16:43:52 2017, MaxMem=  1048576000 cpu:         0.0
 (Enter /mnt/data/applications/G09/g09/l301.exe)
 Standard basis: 6-31G(d) (6D, 7F)
 Ernie: Thresh=  0.10000D-02 Tol=  0.10000D-05 Strict=F.
    83 basis functions,   156 primitive gaussians,    83 cartesian basis functions
    18 alpha electrons       18 beta electrons
       nuclear repulsion energy       157.6545175917 Hartrees.
 IExCor=  402 DFT=T Ex+Corr=B3LYP ExCW=0 ScaHFX=  0.200000
 ScaDFX=  0.800000  0.720000  1.000000  0.810000 ScalE2=  1.000000  1.000000
 IRadAn=      0 IRanWt=     -1 IRanGd=            0 ICorTp=0 IEmpDi=  4
 NAtoms=   18 NActive=    9 NUniq=    9 SFac= 1.00D+00 NAtFMM=   60 NAOKFM=F Big=F
 Integral buffers will be    131072 words long.
 Raffenetti 2 integral format.
 Two-electron integral symmetry is turned off.
 Leave Link  301 at Tue Feb  7 16:43:52 2017, MaxMem=  1048576000 cpu:         0.4
 (Enter /mnt/data/applications/G09/g09/l302.exe)
 NPDir=0 NMtPBC=     1 NCelOv=     1 NCel=       1 NClECP=     1 NCelD=      1
         NCelK=      1 NCelE2=     1 NClLst=     1 CellRange=     0.0.
 One-electron integrals computed using PRISM.
 NBasis=    83 RedAO= T EigKep=  1.42D-03  NBF=    83
 NBsUse=    83 1.00D-06 EigRej= -1.00D+00 NBFU=    83
 Precomputing XC quadrature grid using
 IXCGrd= 4 IRadAn=           0 IRanWt=          -1 IRanGd=           0 AccXCQ= 0.00D+00.
 Generated NRdTot=       0 NPtTot=           0 NUsed=           0 NTot=          32
 NSgBfM=    83    83    83    83    83 MxSgAt=     9 MxSgA2=     9.
 Leave Link  302 at Tue Feb  7 16:43:52 2017, MaxMem=  1048576000 cpu:         1.3
 (Enter /mnt/data/applications/G09/g09/l303.exe)
 DipDrv:  MaxL=1.
 Leave Link  303 at Tue Feb  7 16:43:52 2017, MaxMem=  1048576000 cpu:         0.2
 (Enter /mnt/data/applications/G09/g09/l401.exe)
 ExpMin= 1.61D-01 ExpMax= 5.48D+03 ExpMxC= 8.25D+02 IAcc=1 IRadAn=         1 AccDes= 0.00D+00
 Harris functional with IExCor=  402 and IRadAn=       1 diagonalized for initial guess.
 HarFok:  IExCor=  402 AccDes= 0.00D+00 IRadAn=         1 IDoV= 1 UseB2=F ITyADJ=14
 ICtDFT=  3500011 ScaDFX=  1.000000  1.000000  1.000000  1.000000
 FoFCou: FMM=F IPFlag=           0 FMFlag=      100000 FMFlg1=           0
         NFxFlg=           0 DoJE=T BraDBF=F KetDBF=T FulRan=T
         wScrn=  0.000000 ICntrl=     500 IOpCl=  0 I1Cent=   200000004 NGrid=           0
         NMat0=    1 NMatS0=      1 NMatT0=    0 NMatD0=    1 NMtDS0=    0 NMtDT0=    0
 Symmetry not used in FoFCou.
 Harris En= -230.014702655245    
 JPrj=0 DoOrth=F DoCkMO=F.
 Leave Link  401 at Tue Feb  7 16:43:52 2017, MaxMem=  1048576000 cpu:         1.9
 (Enter /mnt/data/applications/G09/g09/l502.exe)
 Closed shell SCF:
 Using DIIS extrapolation, IDIIS=  1040.
 Two-electron integral symmetry not used.
 Keep R1 ints in memory in canonical form, NReq=7014692.
 IVT=       33891 IEndB=       33891 NGot=  1048576000 MDV=  1042464269
 LenX=  1042464269 LenY=  1042456939
 Requested convergence on RMS density matrix=1.00D-08 within 100 cycles.
 Requested convergence on MAX density matrix=1.00D-06.
 Requested convergence on             energy=1.00D-06.
 No special actions if energy rises.
 FoFCou: FMM=F IPFlag=           0 FMFlag=           0 FMFlg1=           0
         NFxFlg=           0 DoJE=F BraDBF=F KetDBF=F FulRan=T
         wScrn=  0.000000 ICntrl=     600 IOpCl=  0 I1Cent=           0 NGrid=           0
         NMat0=    1 NMatS0=   3486 NMatT0=    0 NMatD0=    1 NMtDS0=    0 NMtDT0=    0
 Symmetry not used in FoFCou.
 Integral accuracy reduced to 1.0D-05 until final iterations.

 Cycle   1  Pass 0  IDiag  1:
 E= -229.908113037854    
 DIIS: error= 3.50D-02 at cycle   1 NSaved=   1.
 NSaved= 1 IEnMin= 1 EnMin= -229.908113037854     IErMin= 1 ErrMin= 3.50D-02
 ErrMax= 3.50D-02  0.00D+00 EMaxC= 1.00D-01 BMatC= 9.71D-02 BMatP= 9.71D-02
 IDIUse=3 WtCom= 6.50D-01 WtEn= 3.50D-01
 Coeff-Com:  0.100D+01
 Coeff-En:   0.100D+01
 Coeff:      0.100D+01
 Gap=     0.207 Goal=   None    Shift=    0.000
 GapD=    0.207 DampG=1.000 DampE=0.500 DampFc=0.5000 IDamp=-1.
 Damping current iteration by 5.00D-01
 RMSDP=8.54D-03 MaxDP=1.40D-01              OVMax= 2.27D-01

 Cycle   2  Pass 0  IDiag  1:
 E= -229.946529388627     Delta-E=       -0.038416350773 Rises=F Damp=T
 DIIS: error= 1.05D-02 at cycle   2 NSaved=   2.
 NSaved= 2 IEnMin= 2 EnMin= -229.946529388627     IErMin= 2 ErrMin= 1.05D-02
 ErrMax= 1.05D-02  0.00D+00 EMaxC= 1.00D-01 BMatC= 1.21D-02 BMatP= 9.71D-02
 IDIUse=3 WtCom= 8.95D-01 WtEn= 1.05D-01
 Coeff-Com:  0.132D+00 0.868D+00
 Coeff-En:   0.234D+00 0.766D+00
 Coeff:      0.143D+00 0.857D+00
 Gap=     0.216 Goal=   None    Shift=    0.000
 RMSDP=2.80D-03 MaxDP=3.91D-02 DE=-3.84D-02 OVMax= 1.92D-01

 Cycle   3  Pass 0  IDiag  1:
 E= -229.998720167767     Delta-E=       -0.052190779140 Rises=F Damp=F
 DIIS: error= 1.43D-02 at cycle   3 NSaved=   3.
 NSaved= 3 IEnMin= 3 EnMin= -229.998720167767     IErMin= 2 ErrMin= 1.05D-02
 ErrMax= 1.43D-02  0.00D+00 EMaxC= 1.00D-01 BMatC= 1.41D-02 BMatP= 1.21D-02
 IDIUse=2 WtCom= 0.00D+00 WtEn= 1.00D+00
 Coeff-En:   0.000D+00 0.000D+00 0.100D+01
 Coeff:      0.000D+00 0.000D+00 0.100D+01
 Gap=     0.214 Goal=   None    Shift=    0.000
 RMSDP=3.86D-03 MaxDP=7.09D-02 DE=-5.22D-02 OVMax= 1.53D-01

 Cycle   4  Pass 0  IDiag  1:
 E= -229.951943147647     Delta-E=        0.046777020120 Rises=F Damp=F
 DIIS: error= 3.33D-02 at cycle   4 NSaved=   4.
 NSaved= 4 IEnMin= 3 EnMin= -229.998720167767     IErMin= 2 ErrMin= 1.05D-02
 ErrMax= 3.33D-02  0.00D+00 EMaxC= 1.00D-01 BMatC= 6.28D-02 BMatP= 1.21D-02
 IDIUse=2 WtCom= 0.00D+00 WtEn= 1.00D+00
 Coeff-En:   0.000D+00 0.000D+00 0.764D+00 0.236D+00
 Coeff:      0.000D+00 0.000D+00 0.764D+00 0.236D+00
 Gap=     0.223 Goal=   None    Shift=    0.000
 RMSDP=1.95D-03 MaxDP=3.61D-02 DE= 4.68D-02 OVMax= 8.41D-02

 Cycle   5  Pass 0  IDiag  1:
 E= -230.008678966604     Delta-E=       -0.056735818957 Rises=F Damp=F
 DIIS: error= 7.96D-03 at cycle   5 NSaved=   5.
 NSaved= 5 IEnMin= 5 EnMin= -230.008678966604     IErMin= 5 ErrMin= 7.96D-03
 ErrMax= 7.96D-03  0.00D+00 EMaxC= 1.00D-01 BMatC= 3.91D-03 BMatP= 1.21D-02
 IDIUse=3 WtCom= 9.20D-01 WtEn= 7.96D-02
 Coeff-Com: -0.554D-02 0.244D-01 0.243D+00-0.107D+00 0.845D+00
 Coeff-En:   0.000D+00 0.000D+00 0.266D+00 0.000D+00 0.734D+00
 Coeff:     -0.510D-02 0.224D-01 0.245D+00-0.981D-01 0.836D+00
 Gap=     0.227 Goal=   None    Shift=    0.000
 RMSDP=7.03D-04 MaxDP=1.20D-02 DE=-5.67D-02 OVMax= 2.78D-02

 Cycle   6  Pass 0  IDiag  1:
 E= -230.012490087523     Delta-E=       -0.003811120919 Rises=F Damp=F
 DIIS: error= 4.89D-04 at cycle   6 NSaved=   6.
 NSaved= 6 IEnMin= 6 EnMin= -230.012490087523     IErMin= 6 ErrMin= 4.89D-04
 ErrMax= 4.89D-04  0.00D+00 EMaxC= 1.00D-01 BMatC= 1.30D-05 BMatP= 3.91D-03
 IDIUse=3 WtCom= 9.95D-01 WtEn= 4.89D-03
 Coeff-Com: -0.511D-02 0.121D-01 0.906D-01-0.664D-01 0.433D+00 0.535D+00
 Coeff-En:   0.000D+00 0.000D+00 0.000D+00 0.000D+00 0.000D+00 0.100D+01
 Coeff:     -0.508D-02 0.120D-01 0.902D-01-0.660D-01 0.431D+00 0.538D+00
 Gap=     0.228 Goal=   None    Shift=    0.000
 RMSDP=4.20D-05 MaxDP=8.18D-04 DE=-3.81D-03 OVMax= 1.73D-03

 Cycle   7  Pass 0  IDiag  1:
 E= -230.012503545409     Delta-E=       -0.000013457886 Rises=F Damp=F
 DIIS: error= 4.39D-05 at cycle   7 NSaved=   7.
 NSaved= 7 IEnMin= 7 EnMin= -230.012503545409     IErMin= 7 ErrMin= 4.39D-05
 ErrMax= 4.39D-05  0.00D+00 EMaxC= 1.00D-01 BMatC= 1.50D-07 BMatP= 1.30D-05
 IDIUse=1 WtCom= 1.00D+00 WtEn= 0.00D+00
 Coeff-Com: -0.259D-03-0.253D-04 0.121D-01-0.681D-02 0.537D-01 0.147D+00
 Coeff-Com:  0.794D+00
 Coeff:     -0.259D-03-0.253D-04 0.121D-01-0.681D-02 0.537D-01 0.147D+00
 Coeff:      0.794D+00
 Gap=     0.228 Goal=   None    Shift=    0.000
 RMSDP=4.08D-06 MaxDP=8.85D-05 DE=-1.35D-05 OVMax= 1.05D-04

 Initial convergence to 1.0D-05 achieved.  Increase integral accuracy.
 Cycle   8  Pass 1  IDiag  1:
 E= -230.012530317033     Delta-E=       -0.000026771624 Rises=F Damp=F
 DIIS: error= 1.44D-05 at cycle   1 NSaved=   1.
 NSaved= 1 IEnMin= 1 EnMin= -230.012530317033     IErMin= 1 ErrMin= 1.44D-05
 ErrMax= 1.44D-05  0.00D+00 EMaxC= 1.00D-01 BMatC= 2.55D-08 BMatP= 2.55D-08
 IDIUse=1 WtCom= 1.00D+00 WtEn= 0.00D+00
 Coeff-Com:  0.100D+01
 Coeff:      0.100D+01
 Gap=     0.228 Goal=   None    Shift=    0.000
 RMSDP=4.08D-06 MaxDP=8.85D-05 DE=-2.68D-05 OVMax= 1.54D-04

 Cycle   9  Pass 1  IDiag  1:
 E= -230.012530310733     Delta-E=        0.000000006300 Rises=F Damp=F
 DIIS: error= 2.57D-05 at cycle   2 NSaved=   2.
 NSaved= 2 IEnMin= 1 EnMin= -230.012530317033     IErMin= 1 ErrMin= 1.44D-05
 ErrMax= 2.57D-05  0.00D+00 EMaxC= 1.00D-01 BMatC= 3.46D-08 BMatP= 2.55D-08
 IDIUse=1 WtCom= 1.00D+00 WtEn= 0.00D+00
 Coeff-Com:  0.548D+00 0.452D+00
 Coeff:      0.548D+00 0.452D+00
 Gap=     0.228 Goal=   None    Shift=    0.000
 RMSDP=2.77D-06 MaxDP=7.14D-05 DE= 6.30D-09 OVMax= 1.42D-04

 Cycle  10  Pass 1  IDiag  1:
 E= -230.012530342383     Delta-E=       -0.000000031650 Rises=F Damp=F
 DIIS: error= 8.94D-06 at cycle   3 NSaved=   3.
 NSaved= 3 IEnMin= 3 EnMin= -230.012530342383     IErMin= 3 ErrMin= 8.94D-06
 ErrMax= 8.94D-06  0.00D+00 EMaxC= 1.00D-01 BMatC= 4.60D-09 BMatP= 2.55D-08
 IDIUse=1 WtCom= 1.00D+00 WtEn= 0.00D+00
 Coeff-Com: -0.164D-01 0.264D+00 0.752D+00
 Coeff:     -0.164D-01 0.264D+00 0.752D+00
 Gap=     0.228 Goal=   None    Shift=    0.000
 RMSDP=7.57D-07 MaxDP=1.68D-05 DE=-3.16D-08 OVMax= 3.42D-05

 Cycle  11  Pass 1  IDiag  1:
 E= -230.012530346996     Delta-E=       -0.000000004613 Rises=F Damp=F
 DIIS: error= 1.90D-06 at cycle   4 NSaved=   4.
 NSaved= 4 IEnMin= 4 EnMin= -230.012530346996     IErMin= 4 ErrMin= 1.90D-06
 ErrMax= 1.90D-06  0.00D+00 EMaxC= 1.00D-01 BMatC= 2.10D-10 BMatP= 4.60D-09
 IDIUse=1 WtCom= 1.00D+00 WtEn= 0.00D+00
 Coeff-Com: -0.190D-01 0.164D+00 0.484D+00 0.370D+00
 Coeff:     -0.190D-01 0.164D+00 0.484D+00 0.370D+00
 Gap=     0.228 Goal=   None    Shift=    0.000
 RMSDP=1.38D-07 MaxDP=3.37D-06 DE=-4.61D-09 OVMax= 4.52D-06

 Cycle  12  Pass 1  IDiag  1:
 E= -230.012530347158     Delta-E=       -0.000000000162 Rises=F Damp=F
 DIIS: error= 2.50D-07 at cycle   5 NSaved=   5.
 NSaved= 5 IEnMin= 5 EnMin= -230.012530347158     IErMin= 5 ErrMin= 2.50D-07
 ErrMax= 2.50D-07  0.00D+00 EMaxC= 1.00D-01 BMatC= 3.95D-12 BMatP= 2.10D-10
 IDIUse=1 WtCom= 1.00D+00 WtEn= 0.00D+00
 Coeff-Com: -0.603D-02 0.363D-01 0.113D+00 0.146D+00 0.711D+00
 Coeff:     -0.603D-02 0.363D-01 0.113D+00 0.146D+00 0.711D+00
 Gap=     0.228 Goal=   None    Shift=    0.000
 RMSDP=3.16D-08 MaxDP=5.94D-07 DE=-1.62D-10 OVMax= 1.31D-06

 Cycle  13  Pass 1  IDiag  1:
 E= -230.012530347160     Delta-E=       -0.000000000002 Rises=F Damp=F
 DIIS: error= 1.53D-07 at cycle   6 NSaved=   6.
 NSaved= 6 IEnMin= 6 EnMin= -230.012530347160     IErMin= 6 ErrMin= 1.53D-07
 ErrMax= 1.53D-07  0.00D+00 EMaxC= 1.00D-01 BMatC= 1.22D-12 BMatP= 3.95D-12
 IDIUse=1 WtCom= 1.00D+00 WtEn= 0.00D+00
 Coeff-Com: -0.144D-02 0.565D-02 0.204D-01 0.423D-01 0.408D+00 0.525D+00
 Coeff:     -0.144D-02 0.565D-02 0.204D-01 0.423D-01 0.408D+00 0.525D+00
 Gap=     0.228 Goal=   None    Shift=    0.000
 RMSDP=1.48D-08 MaxDP=3.52D-07 DE=-2.39D-12 OVMax= 6.62D-07

 Cycle  14  Pass 1  IDiag  1:
 E= -230.012530347161     Delta-E=       -0.000000000001 Rises=F Damp=F
 DIIS: error= 2.83D-08 at cycle   7 NSaved=   7.
 NSaved= 7 IEnMin= 7 EnMin= -230.012530347161     IErMin= 7 ErrMin= 2.83D-08
 ErrMax= 2.83D-08  0.00D+00 EMaxC= 1.00D-01 BMatC= 9.95D-14 BMatP= 1.22D-12
 IDIUse=1 WtCom= 1.00D+00 WtEn= 0.00D+00
 Coeff-Com:  0.184D-03-0.288D-02-0.706D-02-0.353D-02 0.100D+00 0.270D+00
 Coeff-Com:  0.643D+00
 Coeff:      0.184D-03-0.288D-02-0.706D-02-0.353D-02 0.100D+00 0.270D+00
 Coeff:      0.643D+00
 Gap=     0.228 Goal=   None    Shift=    0.000
 RMSDP=3.64D-09 MaxDP=5.51D-08 DE=-7.96D-13 OVMax= 1.18D-07

 SCF Done:  E(RB3LYP) =  -230.012530347     A.U. after   14 cycles
            NFock= 14  Conv=0.36D-08     -V/T= 2.0112
 KE= 2.274670591668D+02 PE=-8.506464394153D+02 EE= 2.355123323097D+02
 Leave Link  502 at Tue Feb  7 16:43:54 2017, MaxMem=  1048576000 cpu:        14.4
 (Enter /mnt/data/applications/G09/g09/l601.exe)
 Copying SCF densities to generalized density rwf, IOpCl= 0 IROHF=0.

 **********************************************************************

            Population analysis using the SCF density.

 **********************************************************************

 Alpha  occ. eigenvalues --  -19.21386 -10.24277 -10.24045 -10.18957 -10.18915
 Alpha  occ. eigenvalues --   -1.08496  -0.78277  -0.72990  -0.58197  -0.56874
 Alpha  occ. eigenvalues --   -0.52761  -0.44974  -0.43038  -0.39995  -0.39193
 Alpha  occ. eigenvalues --   -0.35779  -0.27062  -0.22022
 Alpha virt. eigenvalues --    0.00753   0.07151   0.10703   0.12251   0.14837
 Alpha virt. eigenvalues --    0.16470   0.18678   0.19844   0.30643   0.35954
 Alpha virt. eigenvalues --    0.41659   0.52101   0.53639   0.56559   0.57972
 Alpha virt. eigenvalues --    0.58124   0.58976   0.61358   0.61865   0.65510
 Alpha virt. eigenvalues --    0.67672   0.79737   0.81456   0.83448   0.90303
 Alpha virt. eigenvalues --    0.90977   0.97744   0.97930   1.00699   1.02750
 Alpha virt. eigenvalues --    1.12601   1.13091   1.35737   1.36955   1.37507
 Alpha virt. eigenvalues --    1.39531   1.48419   1.53330   1.56608   1.56822
 Alpha virt. eigenvalues --    1.67796   1.82169   1.92220   1.98295   1.98791
 Alpha virt. eigenvalues --    2.02558   2.18903   2.20575   2.20924   2.21767
 Alpha virt. eigenvalues --    2.29558   2.36140   2.52632   2.61039   2.61971
 Alpha virt. eigenvalues --    2.64101   2.75811   2.88772   2.92469   3.03827
 Alpha virt. eigenvalues --    3.91658   4.11758   4.12334   4.28861   4.44995
          Condensed to atoms (all electrons):
               1          2          3          4          5          6
     1  C    4.856255   0.576499  -0.053526  -0.104157   0.370192  -0.038549
     2  C    0.576499   4.911976   0.510521  -0.053675  -0.043642   0.360046
     3  C   -0.053526   0.510521   4.911226   0.575925   0.003191  -0.036325
     4  C   -0.104157  -0.053675   0.575925   4.861462   0.004609   0.005606
     5  H    0.370192  -0.043642   0.003191   0.004609   0.532127  -0.000154
     6  H   -0.038549   0.360046  -0.036325   0.005606  -0.000154   0.567878
     7  H    0.005589  -0.036292   0.359899  -0.038367  -0.000109  -0.001995
     8  O    0.307617  -0.055136  -0.055667   0.307389  -0.032321   0.003197
     9  H    0.004493   0.002997  -0.042084   0.366846  -0.000087  -0.000102
               7          8          9
     1  C    0.005589   0.307617   0.004493
     2  C   -0.036292  -0.055136   0.002997
     3  C    0.359899  -0.055667  -0.042084
     4  C   -0.038367   0.307389   0.366846
     5  H   -0.000109  -0.032321  -0.000087
     6  H   -0.001995   0.003197  -0.000102
     7  H    0.567823   0.003193  -0.000071
     8  O    0.003193   7.969871  -0.031352
     9  H   -0.000071  -0.031352   0.532986
 Mulliken charges:
               1
     1  C    0.075587
     2  C   -0.173294
     3  C   -0.173160
     4  C    0.074363
     5  H    0.166193
     6  H    0.140398
     7  H    0.140330
     8  O   -0.416790
     9  H    0.166375
    10  H    0.000000
    11  C    0.000000
    12  H    0.000000
    13  H    0.000000
    14  H    0.000000
    15  C    0.000000
    16  H    0.000000
    17  H    0.000000
    18  H    0.000000
 Sum of Mulliken charges =   0.00000
 Mulliken charges with hydrogens summed into heavy atoms:
               1
     1  C    0.241779
     2  C   -0.032896
     3  C   -0.032830
     4  C    0.240737
     8  O   -0.416790
    11  C    0.000000
    15  C    0.000000
 Electronic spatial extent (au):  <R**2>=            703.6278
 Charge=              0.0000 electrons
 Dipole moment (field-independent basis, Debye):
    X=              0.6855    Y=             -0.2118    Z=             -0.0001  Tot=              0.7174
 Quadrupole moment (field-independent basis, Debye-Ang):
   XX=            -29.2263   YY=            -23.9039   ZZ=            -31.3781
   XY=              2.4406   XZ=              0.3316   YZ=             -0.1033
 Traceless Quadrupole moment (field-independent basis, Debye-Ang):
   XX=             -1.0569   YY=              4.2656   ZZ=             -3.2087
   XY=              2.4406   XZ=              0.3316   YZ=             -0.1033
 Octapole moment (field-independent basis, Debye-Ang**2):
  XXX=            107.2633  YYY=            -78.3086  ZZZ=            -45.5328  XYY=             31.0403
  XXY=            -40.4609  XXZ=            -14.1364  XZZ=             36.6205  YZZ=            -35.4619
  YYZ=            -11.5647  XYZ=              1.1817
 Hexadecapole moment (field-independent basis, Debye-Ang**3):
 XXXX=           -431.0081 YYYY=           -332.3225 ZZZZ=            -75.0170 XXXY=            145.5712
 XXXZ=             51.8816 YYYX=             91.4702 YYYZ=            -37.8832 ZZZX=             52.9848
 ZZZY=            -51.4063 XXYY=           -136.1124 XXZZ=            -84.9312 YYZZ=            -85.9361
 XXYZ=            -19.5717 YYXZ=             15.0174 ZZXY=             40.2253
 N-N= 1.576545175917D+02 E-N=-8.506464412224D+02  KE= 2.274670591668D+02
 No NMR shielding tensors so no spin-rotation constants.
 Leave Link  601 at Tue Feb  7 16:43:54 2017, MaxMem=  1048576000 cpu:         1.1
 (Enter /mnt/data/applications/G09/g09/l701.exe)
 Compute integral first derivatives.
 ... and contract with generalized density number  0.
 Leave Link  701 at Tue Feb  7 16:43:55 2017, MaxMem=  1048576000 cpu:         1.3
 (Enter /mnt/data/applications/G09/g09/l702.exe)
 L702 exits ... SP integral derivatives will be done elsewhere.
 Leave Link  702 at Tue Feb  7 16:43:55 2017, MaxMem=  1048576000 cpu:         0.2
 (Enter /mnt/data/applications/G09/g09/l703.exe)
 Compute integral first derivatives, UseDBF=F ICtDFT=           0.
 Integral derivatives from FoFJK, PRISM(SPDF).
 Calling FoFJK, ICntrl=      2127 FMM=F ISym2X=0 I1Cent= 0 IOpClX= 0 NMat=1 NMatS=1 NMatT=0.
 FoFJK:  IHMeth= 1 ICntrl=    2127 DoSepK=F KAlg= 0 I1Cent=   0 FoldK=F
 IRaf=         0 NMat=   1 IRICut=       1 DoRegI=T DoRafI=F ISym2E= 0.
 FoFCou: FMM=F IPFlag=           0 FMFlag=      100000 FMFlg1=         800
         NFxFlg=           0 DoJE=F BraDBF=F KetDBF=F FulRan=T
         wScrn=  0.000000 ICntrl=    2127 IOpCl=  0 I1Cent=           0 NGrid=           0
         NMat0=    1 NMatS0=      1 NMatT0=    0 NMatD0=    1 NMtDS0=    0 NMtDT0=    0
 Symmetry not used in FoFCou.
 Leave Link  703 at Tue Feb  7 16:43:55 2017, MaxMem=  1048576000 cpu:         5.1
 (Enter /mnt/data/applications/G09/g09/l716.exe)
 Dipole        = 2.69679260D-01-8.33339155D-02-3.24265903D-05
 Cartesian Forces:  Max     0.043499271 RMS     0.010752165
 Leave Link  716 at Tue Feb  7 16:43:56 2017, MaxMem=  1048576000 cpu:         0.2
 (Enter /mnt/data/applications/G09/g09/l120.exe)
 SvSCFP is copying densities from files   528 and   530 to   603.
 ONIOM: saving gridpoint  2
 ONIOM: restoring gridpoint 17
 ONIOM: generating point  1 -- low level on model system.
 Leave Link  120 at Tue Feb  7 16:43:56 2017, MaxMem=  1048576000 cpu:         0.2
 (Enter /mnt/data/applications/G09/g09/l301.exe)
 Standard basis: STO-3G (5D, 7F)
 Ernie: Thresh=  0.10000D-02 Tol=  0.10000D-05 Strict=F.
    29 basis functions,    87 primitive gaussians,    29 cartesian basis functions
    18 alpha electrons       18 beta electrons
       nuclear repulsion energy       157.6545175917 Hartrees.
 IExCor=    0 DFT=F Ex=HF Corr=None ExCW=0 ScaHFX=  1.000000
 ScaDFX=  1.000000  1.000000  1.000000  1.000000 ScalE2=  1.000000  1.000000
 IRadAn=      0 IRanWt=     -1 IRanGd=            0 ICorTp=0 IEmpDi=  4
 NAtoms=   18 NActive=    9 NUniq=    9 SFac= 1.00D+00 NAtFMM=   60 NAOKFM=F Big=F
 Integral buffers will be    131072 words long.
 Raffenetti 1 integral format.
 Two-electron integral symmetry is turned off.
 Leave Link  301 at Tue Feb  7 16:43:56 2017, MaxMem=  1048576000 cpu:         0.5
 (Enter /mnt/data/applications/G09/g09/l402.exe)
 External calculation of energy and first derivatives.
 Running external command "./sictwo_files/sictwo_g09d01 M"
         input file       "/scratch/Gau-12661.EIn"
         output file      "/scratch/Gau-12661.EOu"
         message file     "/scratch/Gau-12661.EMs"
         fchk file        "/scratch/Gau-12661.EFC"
         mat. el file     "/scratch/Gau-12661.EUF"

---------------------------- SICTWO Version 1.0 STARTED -----------------------------

MM calculations started
MM calculations finished ....
Information recovery

---------------------------- SICTWO Version 1.0 FINISHED -----------------------------

 Recovered energy= 0.154490055344E-01 dipole=      0.736895032439     -0.221107852766      0.000000000000
 Energy=    1.544900553E-02 NIter=   0.
 Dipole moment=       0.736895      -0.221108       0.000000
 Leave Link  402 at Tue Feb  7 16:43:58 2017, MaxMem=  1048576000 cpu:        14.9
 (Enter /mnt/data/applications/G09/g09/l601.exe)
 Leave Link  601 at Tue Feb  7 16:43:58 2017, MaxMem=  1048576000 cpu:         0.2
 (Enter /mnt/data/applications/G09/g09/l716.exe)
 Dipole        = 7.36895032D-01-2.21107853D-01 0.00000000D+00
 Cartesian Forces:  Max     0.030912148 RMS     0.008825655
 Leave Link  716 at Tue Feb  7 16:43:58 2017, MaxMem=  1048576000 cpu:         0.2
 (Enter /mnt/data/applications/G09/g09/l120.exe)
 SvSCFP did not find density file   528.
 ONIOM: saving gridpoint  1
 ONIOM: restoring gridpoint  3
 ONIOM: calculating energy.
 ONIOM: gridpoint  1 method:  low   system:  model energy:     0.015449005534
 ONIOM: gridpoint  2 method:  high  system:  model energy:  -230.012530347161
 ONIOM: gridpoint  3 method:  low   system:  real  energy:     0.024405999315
 ONIOM: extrapolated energy =    -230.003573353380
 ONIOM: calculating first derivatives.
 ONIOM: calculating electric field derivatives.
 ONIOM: Integrating ONIOM file  4 number   619
 ONIOM: Dipole        = 2.52368325D-01 8.89885747D-02-3.24265903D-05
 ONIOM: Dipole moment (Debye):
    X=     0.6415    Y=     0.2262    Z=    -0.0001  Tot=     0.6802
 ONIOM: Integrating ONIOM file  5 number   695
 Nuclear Quadrupole Tensors: 
                 1             2             3             4             5 
      1   0.202172D+00  0.819817D-01  0.882003D-01 -0.105103D+00 -0.498143D-01
      2   0.183338D+00 -0.103597D-01  0.114047D-02 -0.271636D+00 -0.209034D+00
      3  -0.247428D+00  0.732784D-01  0.658229D-01  0.542715D-01 -0.111746D+00
      4   0.691228D-05 -0.206956D-04  0.000000D+00  0.154781D-04  0.266811D-04
      5  -0.238611D-04 -0.179943D-04 -0.138583D-04  0.656711D-05  0.284296D-04
      6   0.452558D-01 -0.155260D+00 -0.154023D+00  0.508318D-01  0.161560D+00
                 6             7             8             9            10 
      1  -0.142044D-01 -0.256347D+00  0.490649D+00  0.000000D+00  0.000000D+00
      2   0.214152D+00 -0.139830D+00 -0.590663D+00  0.000000D+00  0.000000D+00
      3  -0.147678D+00  0.944413D-01 -0.123519D+01  0.000000D+00  0.000000D+00
      4  -0.717023D-05  0.951407D-05  0.131354D-03  0.000000D+00  0.000000D+00
      5   0.837776D-05  0.450885D-05  0.564231D-04  0.000000D+00  0.000000D+00
      6   0.161882D+00  0.161905D+00  0.744545D+00  0.000000D+00  0.000000D+00
                11            12            13            14            15 
      1   0.000000D+00  0.000000D+00  0.000000D+00  0.000000D+00  0.000000D+00
      2   0.000000D+00  0.000000D+00  0.000000D+00  0.000000D+00  0.000000D+00
      3   0.000000D+00  0.000000D+00  0.000000D+00  0.000000D+00  0.000000D+00
      4   0.000000D+00  0.000000D+00  0.000000D+00  0.000000D+00  0.000000D+00
      5   0.000000D+00  0.000000D+00  0.000000D+00  0.000000D+00  0.000000D+00
      6   0.000000D+00  0.000000D+00  0.000000D+00  0.000000D+00  0.000000D+00
                16            17            18 
      1   0.000000D+00  0.000000D+00  0.000000D+00
      2   0.000000D+00  0.000000D+00  0.000000D+00
      3   0.000000D+00  0.000000D+00  0.000000D+00
      4   0.000000D+00  0.000000D+00  0.000000D+00
      5   0.000000D+00  0.000000D+00  0.000000D+00
      6   0.000000D+00  0.000000D+00  0.000000D+00
 Saving ESP charges from gridpoint 2
 Leave Link  120 at Tue Feb  7 16:43:58 2017, MaxMem=  1048576000 cpu:         0.0
 (Enter /mnt/data/applications/G09/g09/l716.exe)
 Dipole        = 2.52368325D-01 8.89885747D-02-3.24265903D-05
 -------------------------------------------------------------------
 Center     Atomic                   Forces (Hartrees/Bohr)
 Number     Number              X              Y              Z
 -------------------------------------------------------------------
      1        6           0.043523474    0.021464781    0.000026345
      2        6          -0.029627360    0.004608218    0.000023005
      3        6          -0.026611531    0.003546575   -0.000081567
      4        6           0.019348605   -0.022457599   -0.003248113
      5        1          -0.002846311    0.012891184    0.000000036
      6        1          -0.002348042    0.001227659    0.000001410
      7        1          -0.001914206   -0.001659985    0.000008302
      8        8           0.005749808   -0.002277362   -0.000551678
      9        6           0.004186258   -0.023707496    0.021092056
     10        1          -0.007717601    0.001346998   -0.013998477
     11        6          -0.024016761   -0.006964959   -0.001331482
     12        1           0.010243613   -0.001379634   -0.011974649
     13        1           0.001368502    0.015207765   -0.000434129
     14        1           0.011317636   -0.001083974    0.011865695
     15        6           0.012931875   -0.007103091   -0.021533167
     16        1          -0.002421527    0.014873314    0.003339287
     17        1          -0.014790923   -0.004050355    0.001683389
     18        1           0.003624575   -0.004481786    0.015113653
 -------------------------------------------------------------------
 Cartesian Forces:  Max     0.043523474 RMS     0.013032782
 Leave Link  716 at Tue Feb  7 16:43:58 2017, MaxMem=  1048576000 cpu:         0.2
 (Enter /mnt/data/applications/G09/g09/l103.exe)

 GradGradGradGradGradGradGradGradGradGradGradGradGradGradGradGradGradGrad
 Berny optimization.
 FormGI is forming the generalized inverse of G from B-inverse, IUseBI=4.
 Internal  Forces:  Max     0.036440773 RMS     0.009373552
 Search for a local minimum.
 Step number   1 out of a maximum of   99
 All quantities printed in internal units (Hartrees-Bohrs-Radians)
 RMS Force = .93736D-02 SwitMx=.10000D-02 MixMth= 1
 Mixed Optimization -- RFO/linear search
 Second derivative matrix not updated -- first step.
 ITU=  0
     Eigenvalues ---    0.00237   0.00237   0.00237   0.01058   0.01786
     Eigenvalues ---    0.01826   0.01889   0.01952   0.01997   0.04267
     Eigenvalues ---    0.04635   0.05443   0.05720   0.05720   0.05720
     Eigenvalues ---    0.05720   0.16000   0.16000   0.16000   0.16000
     Eigenvalues ---    0.16000   0.16000   0.16000   0.16000   0.16000
     Eigenvalues ---    0.16074   0.17421   0.22191   0.24050   0.25000
     Eigenvalues ---    0.28519   0.28519   0.28519   0.34897   0.35418
     Eigenvalues ---    0.35419   0.37230   0.37230   0.37230   0.37230
     Eigenvalues ---    0.37230   0.37230   0.37230   0.38263   0.40583
     Eigenvalues ---    0.44441   0.45742   0.46623
 RFO step:  Lambda=-2.33150156D-02 EMin= 2.36824067D-03
 Linear search not attempted -- first point.
 Iteration  1 RMS(Cart)=  0.10527773 RMS(Int)=  0.00406724
 Iteration  2 RMS(Cart)=  0.00582557 RMS(Int)=  0.00030678
 Iteration  3 RMS(Cart)=  0.00001177 RMS(Int)=  0.00030663
 Iteration  4 RMS(Cart)=  0.00000000 RMS(Int)=  0.00030663
 ITry= 1 IFail=0 DXMaxC= 3.63D-01 DCOld= 1.00D+10 DXMaxT= 3.00D-01 DXLimC= 3.00D+00 Rises=F
 Variable       Old X    -DE/DX   Delta X   Delta X   Delta X     New X
                                 (Linear)    (Quad)   (Total)
    R1        2.64892  -0.03644   0.00000  -0.07733  -0.07725   2.57167
    R2        2.05842  -0.00803   0.00000  -0.02156  -0.02156   2.03685
    R3        2.63012  -0.02686   0.00000  -0.05654  -0.05638   2.57374
    R4        2.71151  -0.01133   0.00000  -0.02472  -0.02483   2.68668
    R5        2.05001  -0.00238   0.00000  -0.00631  -0.00631   2.04370
    R6        2.64911  -0.02684   0.00000  -0.05447  -0.05461   2.59449
    R7        2.05000  -0.00235   0.00000  -0.00623  -0.00623   2.04376
    R8        2.63013  -0.02455   0.00000  -0.05025  -0.05023   2.57990
    R9        2.91018  -0.01673   0.00000  -0.05423  -0.05423   2.85595
   R10        2.02201   0.01569   0.00000   0.03966   0.03966   2.06167
   R11        2.91018   0.00148   0.00000   0.00479   0.00479   2.91497
   R12        2.91018  -0.00103   0.00000  -0.00333  -0.00333   2.90685
   R13        2.02201   0.01532   0.00000   0.03871   0.03871   2.06072
   R14        2.02201   0.01499   0.00000   0.03790   0.03790   2.05991
   R15        2.02201   0.01568   0.00000   0.03964   0.03964   2.06165
   R16        2.02201   0.01500   0.00000   0.03790   0.03790   2.05991
   R17        2.02201   0.01515   0.00000   0.03830   0.03830   2.06031
   R18        2.02201   0.01560   0.00000   0.03942   0.03942   2.06143
    A1        2.27063   0.00520   0.00000   0.03853   0.03843   2.30906
    A2        1.89225   0.01118   0.00000   0.04063   0.04083   1.93307
    A3        2.12031  -0.01638   0.00000  -0.07916  -0.07926   2.04105
    A4        1.87077  -0.00500   0.00000  -0.01891  -0.01896   1.85181
    A5        2.20681   0.00131   0.00000   0.00297   0.00299   2.20980
    A6        2.20561   0.00369   0.00000   0.01594   0.01597   2.22157
    A7        1.87074  -0.00432   0.00000  -0.01105  -0.01130   1.85944
    A8        2.20561   0.00120   0.00000   0.00027   0.00040   2.20601
    A9        2.20683   0.00312   0.00000   0.01077   0.01090   2.21773
   A10        1.89218   0.00583   0.00000   0.02371   0.02358   1.91576
   A11        2.27088   0.02222   0.00000   0.08013   0.08018   2.35107
   A12        2.12012  -0.02806   0.00000  -0.10384  -0.10378   2.01634
   A13        1.89884  -0.00770   0.00000  -0.03439  -0.03416   1.86468
   A14        1.91063  -0.00436   0.00000  -0.04871  -0.04857   1.86207
   A15        1.91063   0.00970   0.00000   0.06931   0.06933   1.97996
   A16        1.91063  -0.00335   0.00000  -0.00593  -0.00755   1.90309
   A17        1.91063  -0.00228   0.00000  -0.01672  -0.01589   1.89474
   A18        1.91063   0.00210   0.00000  -0.00655  -0.00699   1.90365
   A19        1.91063  -0.00180   0.00000   0.00860   0.00777   1.91841
   A20        1.91063   0.00387   0.00000   0.02150   0.02117   1.93181
   A21        1.91063   0.00193   0.00000   0.00767   0.00759   1.91822
   A22        1.91063   0.00583   0.00000   0.03427   0.03387   1.94451
   A23        1.91063  -0.00377   0.00000  -0.02548  -0.02549   1.88515
   A24        1.91063  -0.00383   0.00000  -0.01517  -0.01577   1.89487
   A25        1.91063  -0.00403   0.00000  -0.02278  -0.02292   1.88771
   A26        1.91063   0.00343   0.00000   0.01925   0.01901   1.92964
   A27        1.91063   0.00209   0.00000   0.00958   0.00948   1.92012
   A28        1.91063   0.00502   0.00000   0.02865   0.02837   1.93900
   A29        1.91063  -0.00322   0.00000  -0.02014  -0.02018   1.89045
   A30        1.91063  -0.00356   0.00000  -0.01572  -0.01613   1.89451
   A31        1.91063  -0.00376   0.00000  -0.02161  -0.02174   1.88890
    D1       -3.14148  -0.00003   0.00000  -0.00080  -0.00082   3.14089
    D2        0.00009   0.00000   0.00000   0.00002   0.00003   0.00012
    D3        0.00001   0.00000   0.00000   0.00001  -0.00003  -0.00002
    D4        3.14157   0.00003   0.00000   0.00083   0.00082  -3.14079
    D5        0.00007  -0.00006   0.00000  -0.00170  -0.00163  -0.00156
    D6        3.14156  -0.00003   0.00000  -0.00096  -0.00096   3.14060
    D7       -0.00008   0.00006   0.00000   0.00165   0.00166   0.00159
    D8       -3.14156   0.00003   0.00000   0.00099   0.00107  -3.14050
    D9        3.14154   0.00003   0.00000   0.00083   0.00080  -3.14084
   D10        0.00006   0.00000   0.00000   0.00017   0.00021   0.00026
   D11        0.00012  -0.00009   0.00000  -0.00269  -0.00272  -0.00260
   D12       -3.14146   0.00009   0.00000   0.00273   0.00297  -3.13848
   D13       -3.14158  -0.00007   0.00000  -0.00204  -0.00212   3.13949
   D14        0.00003   0.00012   0.00000   0.00339   0.00358   0.00361
   D15       -0.00012   0.00010   0.00000   0.00275   0.00271   0.00259
   D16        3.14146  -0.00007   0.00000  -0.00212  -0.00177   3.13969
   D17        2.09431   0.00095   0.00000   0.01522   0.01465   2.10896
   D18       -0.00009   0.00048   0.00000   0.02308   0.02363   0.02354
   D19       -2.09448  -0.00120   0.00000  -0.02627  -0.02610  -2.12058
   D20       -1.04727   0.00116   0.00000   0.02125   0.02059  -1.02668
   D21        3.14152   0.00068   0.00000   0.02911   0.02956  -3.11210
   D22        1.04713  -0.00099   0.00000  -0.02023  -0.02017   1.02696
   D23        1.04723   0.00022   0.00000  -0.01473  -0.01494   1.03229
   D24       -3.14156  -0.00085   0.00000  -0.02808  -0.02849   3.11314
   D25       -1.04716  -0.00103   0.00000  -0.03030  -0.03078  -1.07794
   D26       -1.04716   0.00102   0.00000   0.01273   0.01280  -1.03436
   D27        1.04723  -0.00005   0.00000  -0.00063  -0.00074   1.04649
   D28       -3.14156  -0.00023   0.00000  -0.00284  -0.00304   3.13859
   D29       -3.14156   0.00095   0.00000   0.02572   0.02632  -3.11524
   D30       -1.04716  -0.00012   0.00000   0.01236   0.01277  -1.03439
   D31        1.04723  -0.00030   0.00000   0.01015   0.01048   1.05771
   D32        2.96664   0.00594   0.00000   0.07770   0.07763   3.04427
   D33       -1.22215   0.00537   0.00000   0.07068   0.07050  -1.15165
   D34        0.87225   0.00512   0.00000   0.06763   0.06739   0.93964
   D35       -1.22215  -0.00017   0.00000   0.01039   0.01044  -1.21171
   D36        0.87225  -0.00074   0.00000   0.00338   0.00331   0.87556
   D37        2.96664  -0.00098   0.00000   0.00032   0.00021   2.96685
   D38        0.87225  -0.00279   0.00000  -0.00883  -0.00853   0.86372
   D39        2.96664  -0.00335   0.00000  -0.01584  -0.01566   2.95098
   D40       -1.22215  -0.00360   0.00000  -0.01890  -0.01877  -1.24091
         Item               Value     Threshold  Converged?
 Maximum Force            0.036441     0.000450     NO 
 RMS     Force            0.009374     0.000300     NO 
 Maximum Displacement     0.363498     0.001800     NO 
 RMS     Displacement     0.107076     0.001200     NO 
 Predicted change in Energy=-1.276039D-02
 Lowest energy point so far.  Saving SCF results.
 GradGradGradGradGradGradGradGradGradGradGradGradGradGradGradGradGradGrad

 Leave Link  103 at Tue Feb  7 16:43:59 2017, MaxMem=  1048576000 cpu:         0.1
 (Enter /mnt/data/applications/G09/g09/l202.exe)
                          Input orientation:                          
 ---------------------------------------------------------------------
 Center     Atomic      Atomic             Coordinates (Angstroms)
 Number     Number       Type             X           Y           Z
 ---------------------------------------------------------------------
      1          6    10061000       -1.941459    0.273979    0.486341
      2          6    10061000       -0.585347    0.160561    0.494566
      3          6    10061000       -0.078610    1.488909    0.500349
      4          6    10061000       -1.169009    2.323178    0.497293
      5          1    10011000       -2.730753   -0.460011    0.479412
      6          1    10011000       -0.014946   -0.758263    0.495588
      7          1    10011000        0.963481    1.778178    0.506461
      8          8    10081000       -2.316333    1.583335    0.486625
      9          6    10061003       -1.360694    3.822277    0.496854
     10          1    10011000       -1.929179    4.065173   -0.402078
     11          6    10061003       -0.035053    4.610457    0.467392
     12          1    10011000        0.545335    4.354970   -0.419759
     13          1    10011000       -0.240130    5.680680    0.439316
     14          1    10011000        0.571085    4.403486    1.350563
     15          6    10061003       -2.181514    4.223554    1.734353
     16          1    10011000       -2.251308    5.308596    1.812071
     17          1    10011000       -3.191469    3.819785    1.659226
     18          1    10011000       -1.727341    3.838701    2.648460
 ---------------------------------------------------------------------
                    Distance matrix (angstroms):
                    1          2          3          4          5
     1  C    0.000000
     2  C    1.360871   0.000000
     3  C    2.224063   1.421732   0.000000
     4  C    2.189981   2.239995   1.372947   0.000000
     5  H    1.077857   2.233407   3.291290   3.191474   0.000000
     6  H    2.185649   1.081479   2.248079   3.290463   2.732183
     7  H    3.271345   2.239575   1.081512   2.201051   4.319443
     8  O    1.361963   2.240683   2.239757   1.365224   2.084960
     9  C    3.595527   3.742903   2.662397   1.511304   4.496149
    10  H    3.893917   4.225618   3.297896   2.102682   4.679406
    11  C    4.737064   4.483874   3.122026   2.553114   5.742524
    12  H    4.864119   4.439313   3.074120   2.812141   5.892818
    13  H    5.668258   5.531179   4.195326   3.484106   6.626681
    14  H    4.910456   4.480231   3.104791   2.843181   5.942612
    15  C    4.149012   4.537921   3.663776   2.483327   4.879787
    16  H    5.215452   5.568977   4.585983   3.436966   5.939922
    17  H    3.938391   4.640929   4.057816   2.771329   4.463281
    18  H    4.174668   4.412723   3.585278   2.689994   4.918387
                    6          7          8          9         10
     6  H    0.000000
     7  H    2.718634   0.000000
     8  O    3.283222   3.285657   0.000000
     9  C    4.774137   3.095193   2.434381   0.000000
    10  H    5.266463   3.797799   2.664433   1.090988   0.000000
    11  C    5.368832   3.003398   3.790524   1.542536   2.154304
    12  H    5.224647   2.769944   4.085663   2.181029   2.491489
    13  H    6.443126   4.084448   4.593593   2.170861   2.484088
    14  H    5.264795   2.785448   4.127569   2.190523   3.072056
    15  C    5.571989   4.168763   2.923313   1.538237   2.157103
    16  H    6.598577   4.950085   3.954568   2.175347   2.559751
    17  H    5.692353   4.770811   2.672557   2.168606   2.429519
    18  H    5.357167   4.009295   3.179169   2.182683   3.065585
                   11         12         13         14         15
    11  C    0.000000
    12  H    1.090487   0.000000
    13  H    1.090057   1.764220   0.000000
    14  H    1.090977   1.771173   1.766258   0.000000
    15  C    2.522336   3.477524   2.751238   2.785045   0.000000
    16  H    2.684650   3.702928   2.463278   2.999686   1.090058
    17  H    3.465341   4.309560   3.696148   3.820052   1.090267
    18  H    2.866444   3.852993   3.238055   2.699312   1.090860
                   16         17         18
    16  H    0.000000
    17  H    1.767434   0.000000
    18  H    1.770502   1.767091   0.000000
 Symmetry turned off by external request.
 Stoichiometry    C7H10O
 Framework group  C1[X(C7H10O)]
 Deg. of freedom    48
 Full point group                 C1      NOp   1
 Rotational constants (GHZ):      4.3230272      1.5228859      1.2162378
 Leave Link  202 at Tue Feb  7 16:43:59 2017, MaxMem=  1048576000 cpu:         0.0
 (Enter /mnt/data/applications/G09/g09/l120.exe)
 SvSCFP did not find density file   528.
 ONIOM: saving gridpoint 17
 ONIOM: restoring gridpoint  3
 ONIOM: restoring gridpoint  3 on chk file.
 ONIOM: generating point  3 -- low level on real system.
 Leave Link  120 at Tue Feb  7 16:43:59 2017, MaxMem=  1048576000 cpu:         0.0
 (Enter /mnt/data/applications/G09/g09/l301.exe)
 Standard basis: STO-3G (5D, 7F)
 Ernie: Thresh=  0.10000D-02 Tol=  0.10000D-05 Strict=F.
    50 basis functions,   150 primitive gaussians,    50 cartesian basis functions
    30 alpha electrons       30 beta electrons
       nuclear repulsion energy       367.7278947514 Hartrees.
 IExCor=    0 DFT=F Ex=HF Corr=None ExCW=0 ScaHFX=  1.000000
 ScaDFX=  1.000000  1.000000  1.000000  1.000000 ScalE2=  1.000000  1.000000
 IRadAn=      0 IRanWt=     -1 IRanGd=            0 ICorTp=0 IEmpDi=  4
 NAtoms=   18 NActive=   18 NUniq=   18 SFac= 1.00D+00 NAtFMM=   60 NAOKFM=F Big=F
 Integral buffers will be    131072 words long.
 Raffenetti 1 integral format.
 Two-electron integral symmetry is turned off.
 Leave Link  301 at Tue Feb  7 16:43:59 2017, MaxMem=  1048576000 cpu:         0.4
 (Enter /mnt/data/applications/G09/g09/l402.exe)
 External calculation of energy and first derivatives.
 Running external command "./sictwo_files/sictwo_g09d01 R"
         input file       "/scratch/Gau-12661.EIn"
         output file      "/scratch/Gau-12661.EOu"
         message file     "/scratch/Gau-12661.EMs"
         fchk file        "/scratch/Gau-12661.EFC"
         mat. el file     "/scratch/Gau-12661.EUF"

---------------------------- SICTWO Version 1.0 STARTED -----------------------------

MM calculations started
MM calculations finished ....
Information recovery

---------------------------- SICTWO Version 1.0 FINISHED -----------------------------

 Recovered energy= 0.176470593937E-01 dipole=      0.658602394182     -0.092456130605      0.003147442744
 Energy=    1.764705939E-02 NIter=   0.
 Dipole moment=       0.658602      -0.092456       0.003147
 Leave Link  402 at Tue Feb  7 16:44:02 2017, MaxMem=  1048576000 cpu:        20.0
 (Enter /mnt/data/applications/G09/g09/l716.exe)
 Dipole        = 6.58602394D-01-9.24561306D-02 3.14744274D-03
 Cartesian Forces:  Max     0.024591721 RMS     0.008263134
 Leave Link  716 at Tue Feb  7 16:44:02 2017, MaxMem=  1048576000 cpu:         0.2
 (Enter /mnt/data/applications/G09/g09/l120.exe)
 SvSCFP did not find density file   528.
 ONIOM: saving gridpoint  3
 ONIOM: restoring gridpoint  2
 ONIOM: restoring gridpoint  2 on chk file.
 ONIOM: generating point  2 -- high level on model system.
 Leave Link  120 at Tue Feb  7 16:44:02 2017, MaxMem=  1048576000 cpu:         0.0
 (Enter /mnt/data/applications/G09/g09/l301.exe)
 Standard basis: 6-31G(d) (6D, 7F)
 Ernie: Thresh=  0.10000D-02 Tol=  0.10000D-05 Strict=F.
    83 basis functions,   156 primitive gaussians,    83 cartesian basis functions
    18 alpha electrons       18 beta electrons
       nuclear repulsion energy       160.6648457707 Hartrees.
 IExCor=  402 DFT=T Ex+Corr=B3LYP ExCW=0 ScaHFX=  0.200000
 ScaDFX=  0.800000  0.720000  1.000000  0.810000 ScalE2=  1.000000  1.000000
 IRadAn=      0 IRanWt=     -1 IRanGd=            0 ICorTp=0 IEmpDi=  4
 NAtoms=   18 NActive=    9 NUniq=    9 SFac= 1.00D+00 NAtFMM=   60 NAOKFM=F Big=F
 Integral buffers will be    131072 words long.
 Raffenetti 2 integral format.
 Two-electron integral symmetry is turned off.
 Leave Link  301 at Tue Feb  7 16:44:02 2017, MaxMem=  1048576000 cpu:         0.3
 (Enter /mnt/data/applications/G09/g09/l302.exe)
 NPDir=0 NMtPBC=     1 NCelOv=     1 NCel=       1 NClECP=     1 NCelD=      1
         NCelK=      1 NCelE2=     1 NClLst=     1 CellRange=     0.0.
 One-electron integrals computed using PRISM.
 NBasis=    83 RedAO= T EigKep=  1.16D-03  NBF=    83
 NBsUse=    83 1.00D-06 EigRej= -1.00D+00 NBFU=    83
 Precomputing XC quadrature grid using
 IXCGrd= 4 IRadAn=           0 IRanWt=          -1 IRanGd=           0 AccXCQ= 0.00D+00.
 Generated NRdTot=       0 NPtTot=           0 NUsed=           0 NTot=          32
 NSgBfM=    83    83    83    83    83 MxSgAt=     9 MxSgA2=     9.
 Leave Link  302 at Tue Feb  7 16:44:02 2017, MaxMem=  1048576000 cpu:         1.3
 (Enter /mnt/data/applications/G09/g09/l303.exe)
 DipDrv:  MaxL=1.
 Leave Link  303 at Tue Feb  7 16:44:02 2017, MaxMem=  1048576000 cpu:         0.2
 (Enter /mnt/data/applications/G09/g09/l401.exe)
 Initial guess from the checkpoint file:  "F_4.chk"
 B after Tr=    -0.094972   -0.114358    0.025085
         Rot=    0.999492   -0.001376    0.003044    0.031683 Ang=  -3.65 deg.
 Guess basis will be translated and rotated to current coordinates.
 JPrj=2 DoOrth=T DoCkMO=T.
 Generating alternative initial guess.
 ExpMin= 1.61D-01 ExpMax= 5.48D+03 ExpMxC= 8.25D+02 IAcc=1 IRadAn=         1 AccDes= 0.00D+00
 Harris functional with IExCor=  402 and IRadAn=       1 diagonalized for initial guess.
 HarFok:  IExCor=  402 AccDes= 0.00D+00 IRadAn=         1 IDoV= 1 UseB2=F ITyADJ=14
 ICtDFT=  3500011 ScaDFX=  1.000000  1.000000  1.000000  1.000000
 FoFCou: FMM=F IPFlag=           0 FMFlag=      100000 FMFlg1=           0
         NFxFlg=           0 DoJE=T BraDBF=F KetDBF=T FulRan=T
         wScrn=  0.000000 ICntrl=     500 IOpCl=  0 I1Cent=   200000004 NGrid=           0
         NMat0=    1 NMatS0=      1 NMatT0=    0 NMatD0=    1 NMtDS0=    0 NMtDT0=    0
 Symmetry not used in FoFCou.
 Harris En= -230.028421183680    
 Leave Link  401 at Tue Feb  7 16:44:03 2017, MaxMem=  1048576000 cpu:         2.1
 (Enter /mnt/data/applications/G09/g09/l502.exe)
 Closed shell SCF:
 Using DIIS extrapolation, IDIIS=  1040.
 Two-electron integral symmetry not used.
 Keep R1 ints in memory in canonical form, NReq=7014692.
 IVT=       33891 IEndB=       33891 NGot=  1048576000 MDV=  1042464269
 LenX=  1042464269 LenY=  1042456939
 Requested convergence on RMS density matrix=1.00D-08 within 100 cycles.
 Requested convergence on MAX density matrix=1.00D-06.
 Requested convergence on             energy=1.00D-06.
 No special actions if energy rises.
 FoFCou: FMM=F IPFlag=           0 FMFlag=           0 FMFlg1=           0
         NFxFlg=           0 DoJE=F BraDBF=F KetDBF=F FulRan=T
         wScrn=  0.000000 ICntrl=     600 IOpCl=  0 I1Cent=           0 NGrid=           0
         NMat0=    1 NMatS0=   3486 NMatT0=    0 NMatD0=    1 NMtDS0=    0 NMtDT0=    0
 Symmetry not used in FoFCou.
 Integral accuracy reduced to 1.0D-05 until final iterations.

 Cycle   1  Pass 0  IDiag  1:
 E= -230.018268886448    
 DIIS: error= 3.71D-03 at cycle   1 NSaved=   1.
 NSaved= 1 IEnMin= 1 EnMin= -230.018268886448     IErMin= 1 ErrMin= 3.71D-03
 ErrMax= 3.71D-03  0.00D+00 EMaxC= 1.00D-01 BMatC= 1.41D-03 BMatP= 1.41D-03
 IDIUse=3 WtCom= 9.63D-01 WtEn= 3.71D-02
 Coeff-Com:  0.100D+01
 Coeff-En:   0.100D+01
 Coeff:      0.100D+01
 Gap=     1.501 Goal=   None    Shift=    0.000
 GapD=    1.501 DampG=2.000 DampE=1.000 DampFc=2.0000 IDamp=-1.
 RMSDP=6.75D-04 MaxDP=8.24D-03              OVMax= 1.00D-02

 Cycle   2  Pass 0  IDiag  1:
 E= -230.019780884834     Delta-E=       -0.001511998386 Rises=F Damp=F
 DIIS: error= 1.91D-03 at cycle   2 NSaved=   2.
 NSaved= 2 IEnMin= 2 EnMin= -230.019780884834     IErMin= 2 ErrMin= 1.91D-03
 ErrMax= 1.91D-03  0.00D+00 EMaxC= 1.00D-01 BMatC= 2.49D-04 BMatP= 1.41D-03
 IDIUse=3 WtCom= 9.81D-01 WtEn= 1.91D-02
 Coeff-Com:  0.233D+00 0.767D+00
 Coeff-En:   0.000D+00 0.100D+01
 Coeff:      0.228D+00 0.772D+00
 Gap=     0.240 Goal=   None    Shift=    0.000
 RMSDP=2.87D-04 MaxDP=3.50D-03 DE=-1.51D-03 OVMax= 5.72D-03

 Cycle   3  Pass 0  IDiag  1:
 E= -230.019954209346     Delta-E=       -0.000173324512 Rises=F Damp=F
 DIIS: error= 9.42D-04 at cycle   3 NSaved=   3.
 NSaved= 3 IEnMin= 3 EnMin= -230.019954209346     IErMin= 3 ErrMin= 9.42D-04
 ErrMax= 9.42D-04  0.00D+00 EMaxC= 1.00D-01 BMatC= 7.62D-05 BMatP= 2.49D-04
 IDIUse=3 WtCom= 9.91D-01 WtEn= 9.42D-03
 Coeff-Com: -0.826D-02 0.350D+00 0.658D+00
 Coeff-En:   0.000D+00 0.205D+00 0.795D+00
 Coeff:     -0.818D-02 0.349D+00 0.659D+00
 Gap=     0.241 Goal=   None    Shift=    0.000
 RMSDP=1.13D-04 MaxDP=1.36D-03 DE=-1.73D-04 OVMax= 2.24D-03

 Cycle   4  Pass 0  IDiag  1:
 E= -230.020028962820     Delta-E=       -0.000074753473 Rises=F Damp=F
 DIIS: error= 1.60D-04 at cycle   4 NSaved=   4.
 NSaved= 4 IEnMin= 4 EnMin= -230.020028962820     IErMin= 4 ErrMin= 1.60D-04
 ErrMax= 1.60D-04  0.00D+00 EMaxC= 1.00D-01 BMatC= 1.87D-06 BMatP= 7.62D-05
 IDIUse=3 WtCom= 9.98D-01 WtEn= 1.60D-03
 Coeff-Com: -0.594D-02 0.144D+00 0.297D+00 0.566D+00
 Coeff-En:   0.000D+00 0.000D+00 0.000D+00 0.100D+01
 Coeff:     -0.593D-02 0.143D+00 0.296D+00 0.567D+00
 Gap=     0.241 Goal=   None    Shift=    0.000
 RMSDP=2.38D-05 MaxDP=5.03D-04 DE=-7.48D-05 OVMax= 8.65D-04

 Cycle   5  Pass 0  IDiag  1:
 E= -230.020029993080     Delta-E=       -0.000001030260 Rises=F Damp=F
 DIIS: error= 1.20D-04 at cycle   5 NSaved=   5.
 NSaved= 5 IEnMin= 5 EnMin= -230.020029993080     IErMin= 5 ErrMin= 1.20D-04
 ErrMax= 1.20D-04  0.00D+00 EMaxC= 1.00D-01 BMatC= 8.85D-07 BMatP= 1.87D-06
 IDIUse=3 WtCom= 9.99D-01 WtEn= 1.20D-03
 Coeff-Com: -0.302D-02 0.231D-01 0.655D-01 0.405D+00 0.509D+00
 Coeff-En:   0.000D+00 0.000D+00 0.000D+00 0.343D+00 0.657D+00
 Coeff:     -0.301D-02 0.231D-01 0.655D-01 0.405D+00 0.510D+00
 Gap=     0.241 Goal=   None    Shift=    0.000
 RMSDP=1.08D-05 MaxDP=1.83D-04 DE=-1.03D-06 OVMax= 4.04D-04

 Cycle   6  Pass 0  IDiag  1:
 E= -230.020030817109     Delta-E=       -0.000000824029 Rises=F Damp=F
 DIIS: error= 1.36D-05 at cycle   6 NSaved=   6.
 NSaved= 6 IEnMin= 6 EnMin= -230.020030817109     IErMin= 6 ErrMin= 1.36D-05
 ErrMax= 1.36D-05  0.00D+00 EMaxC= 1.00D-01 BMatC= 2.35D-08 BMatP= 8.85D-07
 IDIUse=1 WtCom= 1.00D+00 WtEn= 0.00D+00
 Coeff-Com: -0.125D-02 0.525D-02 0.208D-01 0.189D+00 0.265D+00 0.522D+00
 Coeff:     -0.125D-02 0.525D-02 0.208D-01 0.189D+00 0.265D+00 0.522D+00
 Gap=     0.241 Goal=   None    Shift=    0.000
 RMSDP=1.70D-06 MaxDP=3.25D-05 DE=-8.24D-07 OVMax= 5.92D-05

 Initial convergence to 1.0D-05 achieved.  Increase integral accuracy.
 Cycle   7  Pass 1  IDiag  1:
 E= -230.020044486460     Delta-E=       -0.000013669351 Rises=F Damp=F
 DIIS: error= 9.59D-06 at cycle   1 NSaved=   1.
 NSaved= 1 IEnMin= 1 EnMin= -230.020044486460     IErMin= 1 ErrMin= 9.59D-06
 ErrMax= 9.59D-06  0.00D+00 EMaxC= 1.00D-01 BMatC= 1.45D-08 BMatP= 1.45D-08
 IDIUse=1 WtCom= 1.00D+00 WtEn= 0.00D+00
 Coeff-Com:  0.100D+01
 Coeff:      0.100D+01
 Gap=     0.241 Goal=   None    Shift=    0.000
 RMSDP=1.70D-06 MaxDP=3.25D-05 DE=-1.37D-05 OVMax= 3.65D-05

 Cycle   8  Pass 1  IDiag  1:
 E= -230.020044499579     Delta-E=       -0.000000013119 Rises=F Damp=F
 DIIS: error= 5.39D-06 at cycle   2 NSaved=   2.
 NSaved= 2 IEnMin= 2 EnMin= -230.020044499579     IErMin= 2 ErrMin= 5.39D-06
 ErrMax= 5.39D-06  0.00D+00 EMaxC= 1.00D-01 BMatC= 3.82D-09 BMatP= 1.45D-08
 IDIUse=1 WtCom= 1.00D+00 WtEn= 0.00D+00
 Coeff-Com:  0.261D+00 0.739D+00
 Coeff:      0.261D+00 0.739D+00
 Gap=     0.241 Goal=   None    Shift=    0.000
 RMSDP=1.01D-06 MaxDP=2.16D-05 DE=-1.31D-08 OVMax= 3.23D-05

 Cycle   9  Pass 1  IDiag  1:
 E= -230.020044500058     Delta-E=       -0.000000000479 Rises=F Damp=F
 DIIS: error= 5.40D-06 at cycle   3 NSaved=   3.
 NSaved= 3 IEnMin= 3 EnMin= -230.020044500058     IErMin= 2 ErrMin= 5.39D-06
 ErrMax= 5.40D-06  0.00D+00 EMaxC= 1.00D-01 BMatC= 3.41D-09 BMatP= 3.82D-09
 IDIUse=1 WtCom= 1.00D+00 WtEn= 0.00D+00
 Coeff-Com: -0.192D-01 0.489D+00 0.530D+00
 Coeff:     -0.192D-01 0.489D+00 0.530D+00
 Gap=     0.241 Goal=   None    Shift=    0.000
 RMSDP=4.96D-07 MaxDP=1.11D-05 DE=-4.79D-10 OVMax= 1.68D-05

 Cycle  10  Pass 1  IDiag  1:
 E= -230.020044502761     Delta-E=       -0.000000002704 Rises=F Damp=F
 DIIS: error= 8.29D-07 at cycle   4 NSaved=   4.
 NSaved= 4 IEnMin= 4 EnMin= -230.020044502761     IErMin= 4 ErrMin= 8.29D-07
 ErrMax= 8.29D-07  0.00D+00 EMaxC= 1.00D-01 BMatC= 7.65D-11 BMatP= 3.41D-09
 IDIUse=1 WtCom= 1.00D+00 WtEn= 0.00D+00
 Coeff-Com: -0.164D-01 0.268D+00 0.305D+00 0.444D+00
 Coeff:     -0.164D-01 0.268D+00 0.305D+00 0.444D+00
 Gap=     0.241 Goal=   None    Shift=    0.000
 RMSDP=1.19D-07 MaxDP=2.04D-06 DE=-2.70D-09 OVMax= 3.97D-06

 Cycle  11  Pass 1  IDiag  1:
 E= -230.020044502830     Delta-E=       -0.000000000068 Rises=F Damp=F
 DIIS: error= 2.42D-07 at cycle   5 NSaved=   5.
 NSaved= 5 IEnMin= 5 EnMin= -230.020044502830     IErMin= 5 ErrMin= 2.42D-07
 ErrMax= 2.42D-07  0.00D+00 EMaxC= 1.00D-01 BMatC= 4.78D-12 BMatP= 7.65D-11
 IDIUse=1 WtCom= 1.00D+00 WtEn= 0.00D+00
 Coeff-Com: -0.501D-02 0.653D-01 0.758D-01 0.228D+00 0.635D+00
 Coeff:     -0.501D-02 0.653D-01 0.758D-01 0.228D+00 0.635D+00
 Gap=     0.241 Goal=   None    Shift=    0.000
 RMSDP=2.96D-08 MaxDP=5.14D-07 DE=-6.85D-11 OVMax= 1.19D-06

 Cycle  12  Pass 1  IDiag  1:
 E= -230.020044502835     Delta-E=       -0.000000000005 Rises=F Damp=F
 DIIS: error= 1.02D-07 at cycle   6 NSaved=   6.
 NSaved= 6 IEnMin= 6 EnMin= -230.020044502835     IErMin= 6 ErrMin= 1.02D-07
 ErrMax= 1.02D-07  0.00D+00 EMaxC= 1.00D-01 BMatC= 8.02D-13 BMatP= 4.78D-12
 IDIUse=1 WtCom= 1.00D+00 WtEn= 0.00D+00
 Coeff-Com: -0.156D-02 0.152D-01 0.184D-01 0.101D+00 0.385D+00 0.482D+00
 Coeff:     -0.156D-02 0.152D-01 0.184D-01 0.101D+00 0.385D+00 0.482D+00
 Gap=     0.241 Goal=   None    Shift=    0.000
 RMSDP=1.27D-08 MaxDP=2.42D-07 DE=-4.89D-12 OVMax= 4.71D-07

 Cycle  13  Pass 1  IDiag  1:
 E= -230.020044502833     Delta-E=        0.000000000002 Rises=F Damp=F
 DIIS: error= 2.23D-08 at cycle   7 NSaved=   7.
 NSaved= 7 IEnMin= 6 EnMin= -230.020044502835     IErMin= 7 ErrMin= 2.23D-08
 ErrMax= 2.23D-08  0.00D+00 EMaxC= 1.00D-01 BMatC= 3.97D-14 BMatP= 8.02D-13
 IDIUse=1 WtCom= 1.00D+00 WtEn= 0.00D+00
 Coeff-Com: -0.606D-04-0.132D-02-0.129D-02 0.151D-01 0.808D-01 0.221D+00
 Coeff-Com:  0.686D+00
 Coeff:     -0.606D-04-0.132D-02-0.129D-02 0.151D-01 0.808D-01 0.221D+00
 Coeff:      0.686D+00
 Gap=     0.241 Goal=   None    Shift=    0.000
 RMSDP=3.11D-09 MaxDP=6.18D-08 DE= 1.59D-12 OVMax= 1.43D-07

 SCF Done:  E(RB3LYP) =  -230.020044503     A.U. after   13 cycles
            NFock= 13  Conv=0.31D-08     -V/T= 2.0095
 KE= 2.278656644153D+02 PE=-8.569261697540D+02 EE= 2.383756150651D+02
 Leave Link  502 at Tue Feb  7 16:44:05 2017, MaxMem=  1048576000 cpu:        13.5
 (Enter /mnt/data/applications/G09/g09/l701.exe)
 Compute integral first derivatives.
 ... and contract with generalized density number  0.
 Leave Link  701 at Tue Feb  7 16:44:05 2017, MaxMem=  1048576000 cpu:         1.2
 (Enter /mnt/data/applications/G09/g09/l702.exe)
 L702 exits ... SP integral derivatives will be done elsewhere.
 Leave Link  702 at Tue Feb  7 16:44:05 2017, MaxMem=  1048576000 cpu:         0.2
 (Enter /mnt/data/applications/G09/g09/l703.exe)
 Compute integral first derivatives, UseDBF=F ICtDFT=           0.
 Integral derivatives from FoFJK, PRISM(SPDF).
 Calling FoFJK, ICntrl=      2127 FMM=F ISym2X=0 I1Cent= 0 IOpClX= 0 NMat=1 NMatS=1 NMatT=0.
 FoFJK:  IHMeth= 1 ICntrl=    2127 DoSepK=F KAlg= 0 I1Cent=   0 FoldK=F
 IRaf=         0 NMat=   1 IRICut=       1 DoRegI=T DoRafI=F ISym2E= 0.
 FoFCou: FMM=F IPFlag=           0 FMFlag=      100000 FMFlg1=         800
         NFxFlg=           0 DoJE=F BraDBF=F KetDBF=F FulRan=T
         wScrn=  0.000000 ICntrl=    2127 IOpCl=  0 I1Cent=           0 NGrid=           0
[...]
    A1        2.33697   0.00000   0.00000  -0.00002  -0.00002   2.33695
    A2        1.92924   0.00000   0.00000  -0.00001  -0.00001   1.92924
    A3        2.01697   0.00000   0.00000   0.00003   0.00003   2.01700
    A4        1.85003   0.00000   0.00000   0.00000   0.00000   1.85003
    A5        2.21118   0.00000   0.00000   0.00002   0.00001   2.21119
    A6        2.22198   0.00000   0.00000  -0.00002  -0.00002   2.22196
    A7        1.86014   0.00000   0.00000   0.00001   0.00001   1.86015
    A8        2.21513   0.00000   0.00000  -0.00003  -0.00003   2.21510
    A9        2.20792   0.00000   0.00000   0.00002   0.00002   2.20794
   A10        1.91260   0.00000   0.00000  -0.00002  -0.00002   1.91258
   A11        2.33645   0.00000   0.00000   0.00002   0.00002   2.33647
   A12        2.03413   0.00000   0.00000   0.00000   0.00000   2.03413
   A13        1.87277   0.00000   0.00000   0.00001   0.00001   1.87278
   A14        1.87922   0.00000   0.00000  -0.00002  -0.00002   1.87920
   A15        1.93534  -0.00001   0.00000  -0.00003  -0.00003   1.93531
   A16        1.93667   0.00000   0.00000   0.00000   0.00000   1.93667
   A17        1.88651   0.00000   0.00000   0.00002   0.00002   1.88653
   A18        1.88589   0.00000   0.00000   0.00000   0.00000   1.88589
   A19        1.93782   0.00001   0.00000   0.00003   0.00003   1.93786
   A20        1.93697   0.00000   0.00000   0.00000   0.00000   1.93696
   A21        1.93229   0.00000   0.00000  -0.00001  -0.00001   1.93228
   A22        1.94878   0.00000   0.00000   0.00000   0.00000   1.94878
   A23        1.88197   0.00000   0.00000   0.00001   0.00000   1.88198
   A24        1.87835   0.00000   0.00000   0.00000   0.00000   1.87835
   A25        1.88287   0.00000   0.00000   0.00000   0.00001   1.88287
   A26        1.93212   0.00000   0.00000   0.00000   0.00001   1.93213
   A27        1.93710  -0.00001   0.00000  -0.00003  -0.00003   1.93707
   A28        1.94899   0.00000   0.00000   0.00002   0.00002   1.94901
   A29        1.88199   0.00000   0.00000   0.00000   0.00000   1.88199
   A30        1.88256   0.00000   0.00000   0.00000   0.00000   1.88255
   A31        1.87846   0.00000   0.00000   0.00001   0.00001   1.87847
    D1       -3.14138   0.00000   0.00000  -0.00002  -0.00003  -3.14141
    D2        0.00022   0.00000   0.00001   0.00007   0.00008   0.00029
    D3       -0.00007   0.00000  -0.00004   0.00000  -0.00005  -0.00011
    D4        3.14153   0.00000  -0.00003   0.00008   0.00005   3.14158
    D5       -0.00008   0.00000   0.00003  -0.00001   0.00002  -0.00006
    D6        3.14129   0.00000   0.00000   0.00000   0.00001   3.14130
    D7        0.00019   0.00000   0.00003   0.00002   0.00005   0.00024
    D8       -3.14097   0.00000   0.00001  -0.00006  -0.00005  -3.14102
    D9       -3.14141   0.00000   0.00002  -0.00007  -0.00005  -3.14146
   D10        0.00061   0.00000   0.00000  -0.00015  -0.00015   0.00046
   D11       -0.00024   0.00000  -0.00002  -0.00002  -0.00004  -0.00028
   D12       -3.14042   0.00000   0.00000   0.00006   0.00006  -3.14036
   D13        3.14092   0.00000   0.00001   0.00005   0.00006   3.14098
   D14        0.00074   0.00000   0.00003   0.00013   0.00016   0.00090
   D15        0.00020   0.00000  -0.00001   0.00002   0.00001   0.00022
   D16        3.14066   0.00000  -0.00003  -0.00004  -0.00007   3.14059
   D17       -3.11882   0.00000   0.00016   0.00010   0.00026  -3.11856
   D18        1.10386   0.00000   0.00016   0.00010   0.00026   1.10413
   D19       -1.05831   0.00000   0.00016   0.00009   0.00025  -1.05807
   D20        0.02426   0.00000   0.00018   0.00018   0.00036   0.02463
   D21       -2.03624   0.00000   0.00018   0.00019   0.00037  -2.03587
   D22        2.08477   0.00000   0.00018   0.00017   0.00035   2.08512
   D23        0.99642   0.00000   0.00000  -0.00001  -0.00001   0.99641
   D24        3.08570   0.00000   0.00000  -0.00001  -0.00001   3.08569
   D25       -1.09926   0.00000   0.00000  -0.00001  -0.00001  -1.09927
   D26       -1.05964   0.00000   0.00000   0.00002   0.00002  -1.05963
   D27        1.02964   0.00000   0.00000   0.00002   0.00002   1.02965
   D28        3.12786   0.00000   0.00000   0.00002   0.00002   3.12788
   D29       -3.12524   0.00000   0.00000  -0.00001  -0.00001  -3.12526
   D30       -1.03596   0.00000   0.00000  -0.00001  -0.00001  -1.03598
   D31        1.06226   0.00000   0.00000  -0.00001  -0.00001   1.06225
   D32       -3.08384   0.00000   0.00002   0.00005   0.00007  -3.08377
   D33       -0.99456   0.00000   0.00002   0.00003   0.00005  -0.99451
   D34        1.10149   0.00000   0.00002   0.00003   0.00005   1.10155
   D35       -1.02739   0.00000   0.00002   0.00003   0.00005  -1.02734
   D36        1.06189   0.00000   0.00002   0.00001   0.00003   1.06192
   D37       -3.12524   0.00000   0.00002   0.00001   0.00003  -3.12521
   D38        1.03859   0.00000   0.00003   0.00006   0.00009   1.03868
   D39        3.12787   0.00000   0.00003   0.00005   0.00008   3.12794
   D40       -1.05927   0.00000   0.00002   0.00005   0.00008  -1.05919
         Item               Value     Threshold  Converged?
 Maximum Force            0.000012     0.000450     YES
 RMS     Force            0.000003     0.000300     YES
 Maximum Displacement     0.000739     0.001800     YES
 RMS     Displacement     0.000203     0.001200     YES
 Predicted change in Energy=-2.216430D-09
 Optimization completed.
    -- Stationary point found.
                           ----------------------------
                           !   Optimized Parameters   !
                           ! (Angstroms and Degrees)  !
 --------------------------                            --------------------------
 ! Name  Definition              Value          Derivative Info.                !
 --------------------------------------------------------------------------------
 ! R1    R(1,2)                  1.3602         -DE/DX =    0.0                 !
 ! R2    R(1,5)                  1.0793         -DE/DX =    0.0                 !
 ! R3    R(1,8)                  1.3611         -DE/DX =    0.0                 !
 ! R4    R(2,3)                  1.4329         -DE/DX =    0.0                 !
 ! R5    R(2,6)                  1.0809         -DE/DX =    0.0                 !
 ! R6    R(3,4)                  1.3676         -DE/DX =    0.0                 !
 ! R7    R(3,7)                  1.0816         -DE/DX =    0.0                 !
 ! R8    R(4,8)                  1.3678         -DE/DX =    0.0                 !
 ! R9    R(4,9)                  1.4945         -DE/DX =    0.0                 !
 ! R10   R(9,10)                 1.0975         -DE/DX =    0.0                 !
 ! R11   R(9,11)                 1.5272         -DE/DX =    0.0                 !
 ! R12   R(9,15)                 1.5273         -DE/DX =    0.0                 !
 ! R13   R(11,12)                1.0959         -DE/DX =    0.0                 !
 ! R14   R(11,13)                1.0953         -DE/DX =    0.0                 !
 ! R15   R(11,14)                1.096          -DE/DX =    0.0                 !
 ! R16   R(15,16)                1.0953         -DE/DX =    0.0                 !
 ! R17   R(15,17)                1.0959         -DE/DX =    0.0                 !
 ! R18   R(15,18)                1.096          -DE/DX =    0.0                 !
 ! A1    A(2,1,5)              133.8984         -DE/DX =    0.0                 !
 ! A2    A(2,1,8)              110.5375         -DE/DX =    0.0                 !
 ! A3    A(5,1,8)              115.5641         -DE/DX =    0.0                 !
 ! A4    A(1,2,3)              105.999          -DE/DX =    0.0                 !
 ! A5    A(1,2,6)              126.6912         -DE/DX =    0.0                 !
 ! A6    A(3,2,6)              127.3099         -DE/DX =    0.0                 !
 ! A7    A(2,3,4)              106.578          -DE/DX =    0.0                 !
 ! A8    A(2,3,7)              126.9177         -DE/DX =    0.0                 !
 ! A9    A(4,3,7)              126.5043         -DE/DX =    0.0                 !
 ! A10   A(3,4,8)              109.584          -DE/DX =    0.0                 !
 ! A11   A(3,4,9)              133.8688         -DE/DX =    0.0                 !
 ! A12   A(8,4,9)              116.5472         -DE/DX =    0.0                 !
 ! A13   A(1,8,4)              107.3016         -DE/DX =    0.0                 !
 ! A14   A(4,9,10)             107.6712         -DE/DX =    0.0                 !
 ! A15   A(4,9,11)             110.8869         -DE/DX =    0.0                 !
 ! A16   A(4,9,15)             110.9632         -DE/DX =    0.0                 !
 ! A17   A(10,9,11)            108.0891         -DE/DX =    0.0                 !
 ! A18   A(10,9,15)            108.0537         -DE/DX =    0.0                 !
 ! A19   A(11,9,15)            111.0291         -DE/DX =    0.0                 !
 ! A20   A(9,11,12)            110.98           -DE/DX =    0.0                 !
 ! A21   A(9,11,13)            110.7118         -DE/DX =    0.0                 !
 ! A22   A(9,11,14)            111.6571         -DE/DX =    0.0                 !
 ! A23   A(12,11,13)           107.8291         -DE/DX =    0.0                 !
 ! A24   A(12,11,14)           107.6214         -DE/DX =    0.0                 !
 ! A25   A(13,11,14)           107.8803         -DE/DX =    0.0                 !
 ! A26   A(9,15,16)            110.7026         -DE/DX =    0.0                 !
 ! A27   A(9,15,17)            110.9876         -DE/DX =    0.0                 !
 ! A28   A(9,15,18)            111.6688         -DE/DX =    0.0                 !
 ! A29   A(16,15,17)           107.8298         -DE/DX =    0.0                 !
 ! A30   A(16,15,18)           107.8625         -DE/DX =    0.0                 !
 ! A31   A(17,15,18)           107.6279         -DE/DX =    0.0                 !
 ! D1    D(5,1,2,3)           -179.9878         -DE/DX =    0.0                 !
 ! D2    D(5,1,2,6)              0.0124         -DE/DX =    0.0                 !
 ! D3    D(8,1,2,3)             -0.0039         -DE/DX =    0.0                 !
 ! D4    D(8,1,2,6)            179.9964         -DE/DX =    0.0                 !
 ! D5    D(2,1,8,4)             -0.0046         -DE/DX =    0.0                 !
 ! D6    D(5,1,8,4)            179.9826         -DE/DX =    0.0                 !
 ! D7    D(1,2,3,4)              0.0108         -DE/DX =    0.0                 !
 ! D8    D(1,2,3,7)           -179.9645         -DE/DX =    0.0                 !
 ! D9    D(6,2,3,4)           -179.9894         -DE/DX =    0.0                 !
 ! D10   D(6,2,3,7)              0.0352         -DE/DX =    0.0                 !
 ! D11   D(2,3,4,8)             -0.0139         -DE/DX =    0.0                 !
 ! D12   D(2,3,4,9)           -179.933          -DE/DX =    0.0                 !
 ! D13   D(7,3,4,8)            179.9615         -DE/DX =    0.0                 !
 ! D14   D(7,3,4,9)              0.0425         -DE/DX =    0.0                 !
 ! D15   D(3,4,8,1)              0.0117         -DE/DX =    0.0                 !
 ! D16   D(9,4,8,1)            179.9465         -DE/DX =    0.0                 !
 ! D17   D(3,4,9,10)          -178.6952         -DE/DX =    0.0                 !
 ! D18   D(3,4,9,11)            63.2467         -DE/DX =    0.0                 !
 ! D19   D(3,4,9,15)           -60.6369         -DE/DX =    0.0                 !
 ! D20   D(8,4,9,10)             1.3901         -DE/DX =    0.0                 !
 ! D21   D(8,4,9,11)          -116.668          -DE/DX =    0.0                 !
 ! D22   D(8,4,9,15)           119.4483         -DE/DX =    0.0                 !
 ! D23   D(4,9,11,12)           57.0907         -DE/DX =    0.0                 !
 ! D24   D(4,9,11,13)          176.7977         -DE/DX =    0.0                 !
 ! D25   D(4,9,11,14)          -62.9829         -DE/DX =    0.0                 !
 ! D26   D(10,9,11,12)         -60.7131         -DE/DX =    0.0                 !
 ! D27   D(10,9,11,13)          58.9939         -DE/DX =    0.0                 !
 ! D28   D(10,9,11,14)         179.2133         -DE/DX =    0.0                 !
 ! D29   D(15,9,11,12)        -179.0633         -DE/DX =    0.0                 !
 ! D30   D(15,9,11,13)         -59.3563         -DE/DX =    0.0                 !
 ! D31   D(15,9,11,14)          60.863          -DE/DX =    0.0                 !
 ! D32   D(4,9,15,16)         -176.6908         -DE/DX =    0.0                 !
 ! D33   D(4,9,15,17)          -56.984          -DE/DX =    0.0                 !
 ! D34   D(4,9,15,18)           63.1108         -DE/DX =    0.0                 !
 ! D35   D(10,9,15,16)         -58.8649         -DE/DX =    0.0                 !
 ! D36   D(10,9,15,17)          60.8418         -DE/DX =    0.0                 !
 ! D37   D(10,9,15,18)        -179.0633         -DE/DX =    0.0                 !
 ! D38   D(11,9,15,16)          59.5068         -DE/DX =    0.0                 !
 ! D39   D(11,9,15,17)         179.2135         -DE/DX =    0.0                 !
 ! D40   D(11,9,15,18)         -60.6916         -DE/DX =    0.0                 !
 --------------------------------------------------------------------------------
 Lowest energy point so far.  Saving SCF results.
 GradGradGradGradGradGradGradGradGradGradGradGradGradGradGradGradGradGrad

 Largest change from initial coordinates is atom    7       0.748 Angstoms.
 Leave Link  103 at Tue Feb  7 16:45:46 2017, MaxMem=  1048576000 cpu:         0.1
 (Enter /mnt/data/applications/G09/g09/l202.exe)
                          Input orientation:                          
 ---------------------------------------------------------------------
 Center     Atomic      Atomic             Coordinates (Angstroms)
 Number     Number       Type             X           Y           Z
 ---------------------------------------------------------------------
      1          6    10061000       -1.704755    0.300885   -0.166959
      2          6    10061000       -0.680571    0.160585    0.717056
      3          6    10061000       -0.383605    1.480115    1.190075
      4          6    10061000       -1.251703    2.326147    0.556953
      5          1    10011000       -2.268119   -0.389980   -0.775356
      6          1    10011000       -0.193998   -0.762051    1.000667
      7          1    10011000        0.377362    1.757350    1.906951
      8          8    10081000       -2.064731    1.608914   -0.277028
      9          6    10061003       -1.471735    3.803878    0.596129
     10          1    10011000       -2.308990    4.033942   -0.075102
     11          6    10061003       -0.239583    4.551429    0.090765
     12          1    10011000        0.023110    4.233641   -0.924585
     13          1    10011000       -0.423994    5.630798    0.067170
     14          1    10011000        0.632364    4.372927    0.730321
     15          6    10061003       -1.852572    4.262515    2.002239
     16          1    10011000       -2.069821    5.335959    2.013826
     17          1    10011000       -2.744939    3.735701    2.358699
     18          1    10011000       -1.046965    4.074789    2.721212
 ---------------------------------------------------------------------
                    Distance matrix (angstroms):
                    1          2          3          4          5
     1  C    0.000000
     2  C    1.360191   0.000000
     3  C    2.231045   1.432863   0.000000
     4  C    2.197951   2.245325   1.367555   0.000000
     5  H    1.079268   2.247382   3.303266   3.191472   0.000000
     6  H    2.185308   1.080946   2.258126   3.294326   2.755843
     7  H    3.279879   2.254935   1.081592   2.190863   4.336401
     8  O    1.361116   2.236461   2.234987   1.367831   2.070090
     9  C    3.592710   3.730168   2.633757   1.494537   4.483709
    10  H    3.782757   4.275764   3.439449   2.105686   4.479186
    11  C    4.503363   4.457154   3.265302   2.488694   5.411344
    12  H    4.361890   4.447464   3.495584   2.731050   5.162351
    13  H    5.486633   5.514655   4.300084   3.441760   6.352985
    14  H    4.780039   4.412234   3.100312   2.787307   5.776258
    15  C    4.519047   4.455459   3.249497   2.489864   5.434467
    16  H    5.499189   5.513269   4.288290   3.442495   6.372224
    17  H    4.388496   4.442754   3.468321   2.731828   5.202971
    18  H    4.797559   4.412695   3.084925   2.789926   5.800980
                    6          7          8          9         10
     6  H    0.000000
     7  H    2.737733   0.000000
     8  O    3.279271   3.279576   0.000000
     9  C    4.758568   3.053800   2.435553   0.000000
    10  H    5.350889   4.040778   2.445649   1.097485   0.000000
    11  C    5.391017   3.389104   3.482073   1.527227   2.139567
    12  H    5.358233   3.778241   3.415787   2.175276   2.490018
    13  H    6.464738   4.362404   4.357298   2.171450   2.474550
    14  H    5.208067   2.879362   3.991096   2.183818   3.068417
    15  C    5.385191   3.355226   3.504522   1.527263   2.139137
    16  H    6.459948   4.336655   4.374804   2.171369   2.473069
    17  H    5.346151   3.723804   3.454412   2.175396   2.490458
    18  H    5.204118   2.839410   4.013207   2.183988   3.068183
                   11         12         13         14         15
    11  C    0.000000
    12  H    1.095871   0.000000
    13  H    1.095264   1.770742   0.000000
    14  H    1.095987   1.768984   1.771413   0.000000
    15  C    2.517725   3.476394   2.767224   2.793721   0.000000
    16  H    2.768288   3.772231   2.566154   3.142709   1.095269
    17  H    3.476455   4.323192   3.772172   3.803137   1.095862
    18  H    2.792544   3.802911   3.138981   2.621580   1.095978
                   16         17         18
    16  H    0.000000
    17  H    1.770748   0.000000
    18  H    1.771209   1.769043   0.000000
 Symmetry turned off by external request.
 Stoichiometry    C7H10O
 Framework group  C1[X(C7H10O)]
 Deg. of freedom    48
 Full point group                 C1      NOp   1
 Rotational constants (GHZ):      4.3444848      1.3703089      1.3405939
 Leave Link  202 at Tue Feb  7 16:45:46 2017, MaxMem=  1048576000 cpu:         0.0
 (Enter /mnt/data/applications/G09/g09/l9999.exe)
 1\1\GINC-KIMIK2093\FOpt\ONIOM(B3LYP/6-31G(d):External='./sictwo_files/
 sictwo_g09d01')\Mixed\C7H10O1\IFUNES\07-Feb-2017\0\\#p opt=nomicro oni
 om(B3LYP/6-31G*:external="./sictwo_files/sictwo_g09d01") geom=connecti
 vity nosymm scf(maxcyc=100)\\ONIOM(QM:MM) OPT FREQ with SICTWO V1.0\\0
 ,1\C,-1.704755095,0.300884793,-0.1669593173\C,-0.6805712508,0.16058472
 01,0.7170560975\C,-0.3836049514,1.4801147505,1.1900749129\C,-1.2517029
 78,2.3261465977,0.5569526455\H,-2.2681192357,-0.3899802216,-0.77535584
 1\H,-0.193997664,-0.7620506084,1.000666642\H,0.3773624927,1.7573501543
 ,1.9069508068\O,-2.0647312529,1.6089136093,-0.2770278764\C,-1.47173539
 78,3.8038784527,0.5961285325\H,-2.308989657,4.0339416458,-0.0751018076
 \C,-0.2395833068,4.551428924,0.0907651788\H,0.0231100744,4.233640531,-
 0.9245846932\H,-0.423994376,5.630798261,0.0671696604\H,0.632364388,4.3
 729272889,0.7303210561\C,-1.8525722688,4.2625154657,2.0022392669\H,-2.
 0698209869,5.3359594403,2.0138260191\H,-2.7449388355,3.7357014377,2.35
 86986391\H,-1.0469645585,4.074788918,2.7212122779\\Version=EM64L-G09Re
 vD.01\HF=0.0135631\RMSD=3.719e-09\RMSF=5.767e-06\Dipole=0.1531375,0.07
 60215,0.1466508\PG=C01 [X(C7H10O1)]\\@


 THE WORLD OF CHEMICAL REACTIONS IS LIKE A STAGE,
 ON WHICH SCENE AFTER SCENE IS CEASELESSLY PLAYED.
 THE ACTORS ON IT ARE THE ELEMENTS.
   -- CLEMENS WINKLER   BER. 30,13(1897)
 (DISCOVERER OF GERMANIUM, FEB 6, 1886)
 Job cpu time:       0 days  0 hours 13 minutes  6.3 seconds.
 File lengths (MBytes):  RWF=      6 Int=      0 D2E=      0 Chk=      3 Scr=      1
 Normal termination of Gaussian 09 at Tue Feb  7 16:45:47 2017.
